 Entering Gaussian System, Link 0=/home/ubuntu/g09/g09
 Input=x2-4-NO2-Ph-N2-BF4-v2-RB3LYP-aug-cc-pVDZ.gjf
 Output=x2-4-NO2-Ph-N2-BF4-v2-RB3LYP-aug-cc-pVDZ.log
 Initial command:
 /home/ubuntu/g09/l1.exe /home/ubuntu/g09/Gau-22881.inp -scrdir=/home/ubuntu/g09/
 Entering Link 1 = /home/ubuntu/g09/l1.exe PID=     22883.
  
 Copyright (c) 1988,1990,1992,1993,1995,1998,2003,2009,2010,
            Gaussian, Inc.  All Rights Reserved.
  
 This is part of the Gaussian(R) 09 program.  It is based on
 the Gaussian(R) 03 system (copyright 2003, Gaussian, Inc.),
 the Gaussian(R) 98 system (copyright 1998, Gaussian, Inc.),
 the Gaussian(R) 94 system (copyright 1995, Gaussian, Inc.),
 the Gaussian 92(TM) system (copyright 1992, Gaussian, Inc.),
 the Gaussian 90(TM) system (copyright 1990, Gaussian, Inc.),
 the Gaussian 88(TM) system (copyright 1988, Gaussian, Inc.),
 the Gaussian 86(TM) system (copyright 1986, Carnegie Mellon
 University), and the Gaussian 82(TM) system (copyright 1983,
 Carnegie Mellon University). Gaussian is a federally registered
 trademark of Gaussian, Inc.
  
 This software contains proprietary and confidential information,
 including trade secrets, belonging to Gaussian, Inc.
  
 This software is provided under written license and may be
 used, copied, transmitted, or stored only in accord with that
 written license.
  
 The following legend is applicable only to US Government
 contracts under FAR:
  
                    RESTRICTED RIGHTS LEGEND
  
 Use, reproduction and disclosure by the US Government is
 subject to restrictions as set forth in subparagraphs (a)
 and (c) of the Commercial Computer Software - Restricted
 Rights clause in FAR 52.227-19.
  
 Gaussian, Inc.
 340 Quinnipiac St., Bldg. 40, Wallingford CT 06492
  
  
 ---------------------------------------------------------------
 Warning -- This program may not be used in any manner that
 competes with the business of Gaussian, Inc. or will provide
 assistance to any competitor of Gaussian, Inc.  The licensee
 of this program is prohibited from giving any competitor of
 Gaussian, Inc. access to this program.  By using this program,
 the user acknowledges that Gaussian, Inc. is engaged in the
 business of creating and licensing software in the field of
 computational chemistry and represents and warrants to the
 licensee that it is not a competitor of Gaussian, Inc. and that
 it will not use this program in any manner prohibited above.
 ---------------------------------------------------------------
  

 Cite this work as:
 Gaussian 09, Revision B.01,
 M. J. Frisch, G. W. Trucks, H. B. Schlegel, G. E. Scuseria, 
 M. A. Robb, J. R. Cheeseman, G. Scalmani, V. Barone, B. Mennucci, 
 G. A. Petersson, H. Nakatsuji, M. Caricato, X. Li, H. P. Hratchian, 
 A. F. Izmaylov, J. Bloino, G. Zheng, J. L. Sonnenberg, M. Hada, 
 M. Ehara, K. Toyota, R. Fukuda, J. Hasegawa, M. Ishida, T. Nakajima, 
 Y. Honda, O. Kitao, H. Nakai, T. Vreven, J. A. Montgomery, Jr., 
 J. E. Peralta, F. Ogliaro, M. Bearpark, J. J. Heyd, E. Brothers, 
 K. N. Kudin, V. N. Staroverov, T. Keith, R. Kobayashi, J. Normand, 
 K. Raghavachari, A. Rendell, J. C. Burant, S. S. Iyengar, J. Tomasi, 
 M. Cossi, N. Rega, J. M. Millam, M. Klene, J. E. Knox, J. B. Cross, 
 V. Bakken, C. Adamo, J. Jaramillo, R. Gomperts, R. E. Stratmann, 
 O. Yazyev, A. J. Austin, R. Cammi, C. Pomelli, J. W. Ochterski, 
 R. L. Martin, K. Morokuma, V. G. Zakrzewski, G. A. Voth, 
 P. Salvador, J. J. Dannenberg, S. Dapprich, A. D. Daniels, 
 O. Farkas, J. B. Foresman, J. V. Ortiz, J. Cioslowski, 
 and D. J. Fox, Gaussian, Inc., Wallingford CT, 2010.
 
 ******************************************
 Gaussian 09:  EM64L-G09RevB.01 12-Aug-2010
                20-Mar-2019 
 ******************************************
 %chk=x2-4-NO2-Ph-N2-BF4-v2-RB3LYP-aug-cc-pVDZ.chk
 %nprocs=7
 Will use up to    7 processors via shared memory.
 %mem=200MW
 ----------------------------------------------------------------------
 # rb3lyp/aug-cc-pvdz scf=(xqc,maxcycle=2000) nosymm opt=(maxcycles=100
 0,cartesian) freq
 ----------------------------------------------------------------------
 1/6=1000,10=7,14=-1,18=10,26=3,38=1/1,3;
 2/12=2,15=1,17=6,18=5,29=2,40=1/2;
 3/5=16,7=10,11=2,16=1,25=1,30=1,71=1,74=-5,116=1/1,2,3;
 4//1;
 5/5=2,7=2000,8=3,13=1,38=5/2,8;
 6/7=2,8=2,9=2,10=2,28=1/1;
 7/7=1,29=1,30=1/1,2,3,16;
 1/6=1000,10=7,14=-1,18=10/3(2);
 2/15=1,29=1/2;
 99/12=1/99;
 2/15=1,29=1/2;
 3/5=16,7=10,11=2,16=1,25=1,30=1,71=1,74=-5,116=1/1,2,3;
 4/5=5,16=3/1;
 5/5=2,7=2000,8=3,13=1,38=5/2,8;
 7/7=1,30=1/1,2,3,16;
 1/6=1000,14=-1,18=10/3(-5);
 2/15=1,29=1/2;
 6/7=2,8=2,9=2,10=2,19=2,28=1/1;
 99/9=1,12=1/99;
 ----------------------------------------
 x2-4-NO2-Ph-N2-BF4-v2-RB3LYP-aug-cc-pVDZ
 ----------------------------------------
 Symbolic Z-matrix:
 Charge =  1 Multiplicity = 1
 C                     3.494    -0.1694   -0.3697 
 C                     3.759     1.2044   -0.2389 
 C                     5.0237    1.7495    0.0522 
 C                     6.0761    0.8639    0.2243 
 C                     5.826    -0.5026    0.0924 
 C                     4.5708   -1.0313   -0.2002 
 H                     2.4903   -0.5251   -0.5803 
 H                     5.1646    2.8205    0.1416 
 H                     7.0768    1.2072    0.455 
 H                     4.4494   -2.1041   -0.2848 
 N                     2.7209    2.1024   -0.4314 
 N                     1.9183    2.8503   -0.6123 
 H                    -2.3977    1.3633   -0.3854 
 C                    -3.3979    0.9633   -0.2499 
 C                    -3.642    -0.4162   -0.3882 
 C                    -4.487     1.7636    0.0768 
 C                    -4.8974   -1.0197   -0.2166 
 C                    -5.7558    1.2075    0.2642 
 H                    -4.344     2.8316    0.1941 
 C                    -5.9358   -0.1686    0.114 
 H                    -5.0669   -2.084    -0.3274 
 N                    -2.594    -1.2515   -0.7379 
 N                    -1.7801   -1.9428   -1.0477 
 N                     6.9658   -1.445     0.2748 
 O                     6.7197   -2.6374    0.1478 
 O                     8.0539   -0.9471    0.5352 
 F                     1.143     0.6875    1.0663 
 F                    -1.0329   -0.096     0.9951 
 F                     0.4405   -0.6214   -0.6846 
 F                    -0.3397    1.5295   -0.4703 
 B                     0.0527    0.3725    0.2531 
 H                    -6.9128   -0.5797    0.26 
 N                    -6.9321    2.0489    0.6226 
 O                    -8.016     1.5004    0.7727 
 O                    -6.7671    3.2547    0.7526 
 

 GradGradGradGradGradGradGradGradGradGradGradGradGradGradGradGradGradGrad
 Berny optimization.
 Initialization pass.
 No Z-matrix variables, so optimization will use Cartesian coordinates.
 Trust Radius=3.00D-01 FncErr=1.00D-07 GrdErr=1.00D-06
 Number of steps in this run=    210 maximum allowed number of steps=    210.
 GradGradGradGradGradGradGradGradGradGradGradGradGradGradGradGradGradGrad

 ---------------------------------------------------------------------------------------------------
                            Z-MATRIX (ANGSTROMS AND DEGREES)
   CD    Cent   Atom    N1       Length/X        N2       Alpha/Y        N3        Beta/Z          J
 ---------------------------------------------------------------------------------------------------
      1      1  C        0   3.494000         -0.169400         -0.369700
      2      2  C        0   3.759000          1.204400         -0.238900
      3      3  C        0   5.023700          1.749500          0.052200
      4      4  C        0   6.076100          0.863900          0.224300
      5      5  C        0   5.826000         -0.502600          0.092400
      6      6  C        0   4.570800         -1.031300         -0.200200
      7      7  H        0   2.490300         -0.525100         -0.580300
      8      8  H        0   5.164600          2.820500          0.141600
      9      9  H        0   7.076800          1.207200          0.455000
     10     10  H        0   4.449400         -2.104100         -0.284800
     11     11  N        0   2.720900          2.102400         -0.431400
     12     12  N        0   1.918300          2.850300         -0.612300
     13     13  H        0  -2.397700          1.363300         -0.385400
     14     14  C        0  -3.397900          0.963300         -0.249900
     15     15  C        0  -3.642000         -0.416200         -0.388200
     16     16  C        0  -4.487000          1.763600          0.076800
     17     17  C        0  -4.897400         -1.019700         -0.216600
     18     18  C        0  -5.755800          1.207500          0.264200
     19     19  H        0  -4.344000          2.831600          0.194100
     20     20  C        0  -5.935800         -0.168600          0.114000
     21     21  H        0  -5.066900         -2.084000         -0.327400
     22     22  N        0  -2.594000         -1.251500         -0.737900
     23     23  N        0  -1.780100         -1.942800         -1.047700
     24     24  N        0   6.965800         -1.445000          0.274800
     25     25  O        0   6.719700         -2.637400          0.147800
     26     26  O        0   8.053900         -0.947100          0.535200
     27     27  F        0   1.143000          0.687500          1.066300
     28     28  F        0  -1.032900         -0.096000          0.995100
     29     29  F        0   0.440500         -0.621400         -0.684600
     30     30  F        0  -0.339700          1.529500         -0.470300
     31     31  B        0   0.052700          0.372500          0.253100
     32     32  H        0  -6.912800         -0.579700          0.260000
     33     33  N        0  -6.932100          2.048900          0.622600
     34     34  O        0  -8.016000          1.500400          0.772700
     35     35  O        0  -6.767100          3.254700          0.752600
 ---------------------------------------------------------------------------------------------------
                         Z-Matrix orientation:                         
 ---------------------------------------------------------------------
 Center     Atomic      Atomic             Coordinates (Angstroms)
 Number     Number       Type             X           Y           Z
 ---------------------------------------------------------------------
      1          6           0        3.494000   -0.169400   -0.369700
      2          6           0        3.759000    1.204400   -0.238900
      3          6           0        5.023700    1.749500    0.052200
      4          6           0        6.076100    0.863900    0.224300
      5          6           0        5.826000   -0.502600    0.092400
      6          6           0        4.570800   -1.031300   -0.200200
      7          1           0        2.490300   -0.525100   -0.580300
      8          1           0        5.164600    2.820500    0.141600
      9          1           0        7.076800    1.207200    0.455000
     10          1           0        4.449400   -2.104100   -0.284800
     11          7           0        2.720900    2.102400   -0.431400
     12          7           0        1.918300    2.850300   -0.612300
     13          1           0       -2.397700    1.363300   -0.385400
     14          6           0       -3.397900    0.963300   -0.249900
     15          6           0       -3.642000   -0.416200   -0.388200
     16          6           0       -4.487000    1.763600    0.076800
     17          6           0       -4.897400   -1.019700   -0.216600
     18          6           0       -5.755800    1.207500    0.264200
     19          1           0       -4.344000    2.831600    0.194100
     20          6           0       -5.935800   -0.168600    0.114000
     21          1           0       -5.066900   -2.084000   -0.327400
     22          7           0       -2.594000   -1.251500   -0.737900
     23          7           0       -1.780100   -1.942800   -1.047700
     24          7           0        6.965800   -1.445000    0.274800
     25          8           0        6.719700   -2.637400    0.147800
     26          8           0        8.053900   -0.947100    0.535200
     27          9           0        1.143000    0.687500    1.066300
     28          9           0       -1.032900   -0.096000    0.995100
     29          9           0        0.440500   -0.621400   -0.684600
     30          9           0       -0.339700    1.529500   -0.470300
     31          5           0        0.052700    0.372500    0.253100
     32          1           0       -6.912800   -0.579700    0.260000
     33          7           0       -6.932100    2.048900    0.622600
     34          8           0       -8.016000    1.500400    0.772700
     35          8           0       -6.767100    3.254700    0.752600
 ---------------------------------------------------------------------
                    Distance matrix (angstroms):
                    1          2          3          4          5
     1  C    0.000000
     2  C    1.405226   0.000000
     3  C    2.490012   1.407601   0.000000
     4  C    2.843903   2.387351   1.386164   0.000000
     5  C    2.400580   2.701129   2.391078   1.395446   0.000000
     6  C    1.389640   2.378838   2.828723   2.457216   1.393078
     7  H    1.085490   2.171940   3.462943   3.928697   3.402929
     8  H    3.462923   2.175378   1.083922   2.160082   3.388638
     9  H    3.925763   3.389587   2.161378   1.082810   2.149278
    10  H    2.159412   3.380079   3.910706   3.422625   2.145253
    11  N    2.400534   1.386042   2.379348   3.636096   4.086813
    12  N    3.414714   2.497317   3.361076   4.683267   5.196986
    13  H    6.087819   6.160492   7.444315   8.510371   8.446249
    14  C    6.985388   7.160968   8.463612   9.486381   9.345928
    15  C    7.140291   7.577825   8.943074   9.821165   9.480584
    16  C    8.223881   8.270967   9.510742  10.602372  10.559066
    17  C    8.435760   8.937582  10.303832  11.142713  10.740306
    18  C    9.373179   9.528092  10.795199  11.836955  11.708631
    19  H    8.411784   8.276103   9.431059  10.604303  10.703090
    20  C    9.442198   9.797898  11.126256  12.056698  11.766561
    21  H    8.772485   9.419019  10.800927  11.539538  11.015095
    22  N    6.194373   6.829426   8.225546   8.976156   8.493918
    23  N    5.605423   6.421889   7.818859   8.438923   7.824753
    24  N    3.754455   4.191274   3.745148   2.474901   1.490145
    25  O    4.094383   4.865666   4.704301   3.560783   2.314982
    26  O    4.713422   4.865629   4.084979   2.699643   2.314561
    27  F    2.885061   2.968870   4.149226   5.007550   4.929027
    28  F    4.728730   5.116259   6.401354   7.214806   6.929986
    29  F    3.102794   3.813743   5.212462   5.898492   5.442559
    30  F    4.194477   4.118079   5.393280   6.487525   6.516281
    31  B    3.538938   3.830246   5.162105   6.043480   5.841457
    32  H   10.433904  10.831400  12.163404  13.068924  12.740136
    33  N   10.705563  10.758949  11.973143  13.068134  13.021535
    34  O   11.686463  11.822080  13.061966  14.117123  14.002706
    35  O   10.875394  10.769660  11.907105  13.074510  13.158242
                    6          7          8          9         10
     6  C    0.000000
     7  H    2.174671   0.000000
     8  H    3.912261   4.343508   0.000000
     9  H    3.423479   5.010857   2.521401   0.000000
    10  H    1.082957   2.533502   4.994498   4.291298   0.000000
    11  N    3.646321   2.641799   2.610683   4.534419   4.550148
    12  N    4.719364   3.423672   3.332824   5.518064   5.573132
    13  H    7.370780   5.243719   7.719426   9.512980   7.675660
    14  C    8.214687   6.082384   8.770340  10.501224   8.425573
    15  C    8.237947   6.136275   9.397506  10.873780   8.266224
    16  C    9.483245   7.372425   9.709512  11.583354   9.744183
    17  C    9.468221   7.413165  10.775866  12.198016   9.409742
    18  C   10.576699   8.468368  11.039562  12.834018  10.743100
    19  H    9.723740   7.653417   9.508751  11.538692  10.095264
    20  C   10.546640   8.462169  11.495841  13.089571  10.571546
    21  H    9.695856   7.720453  11.355953  12.606094   9.516417
    22  N    7.188322   5.138346   8.806281  10.049507   7.109269
    23  N    6.471709   4.523787   8.504841   9.519731   6.278113
    24  N    2.476449   4.648388   4.632122   2.660631   2.660796
    25  O    2.705260   4.783280   5.675125   3.873350   2.371880
    26  O    3.560883   5.689997   4.764219   2.366889   3.873431
    27  F    4.038330   2.448858   4.645215   5.987801   4.533297
    28  F    5.805599   3.883162   6.902423   8.231481   5.977142
    29  F    4.178761   2.054710   5.903084   6.977316   4.292962
    30  F    5.544697   3.498911   5.686688   7.480944   6.014394
    31  B    4.752827   2.728028   5.668920   7.076402   5.074826
    32  H   11.501687   9.440730  12.547469  14.104607  11.476942
    33  N   11.936555   9.841446  12.130823  14.035164  12.149458
    34  O   12.875697  10.784971  13.261567  15.098990  13.019098
    35  O   12.158355  10.087763  11.955221  13.997657  12.474085
                   11         12         13         14         15
    11  N    0.000000
    12  N    1.111866   0.000000
    13  H    5.171890   4.570614   0.000000
    14  C    6.226572   5.652794   1.085707   0.000000
    15  C    6.843370   6.452688   2.171384   1.407740   0.000000
    16  C    7.233732   6.533272   2.176934   1.390450   2.383648
    17  C    8.236027   7.847754   3.457699   2.486342   1.403456
    18  C    8.552143   7.896762   3.423900   2.425618   2.744117
    19  H    7.129923   6.314035   2.505955   2.140744   3.373438
    20  C    8.966234   8.445600   3.887707   2.802598   2.361150
    21  H    8.842318   8.556956   4.360260   3.475285   2.194446
    22  N    6.292118   6.099294   2.645745   2.406187   1.385034
    23  N    6.082966   6.069723   3.427881   3.420406   2.496421
    24  N    5.576911   6.686838   9.797834  10.652769  10.678175
    25  O    6.228289   7.331169   9.970802  10.746583  10.610648
    26  O    6.218895   7.306339  10.743435  11.636569  11.744301
    27  F    2.595152   2.845434   3.885961   4.735844   5.121518
    28  F    4.578087   4.469228   2.428583   2.874955   2.970429
    29  F    3.561379   3.773834   3.476195   4.175351   4.098386
    30  F    3.114001   2.619779   2.066445   3.117971   3.833755
    31  B    3.252750   3.220074   2.719159   3.536763   3.831987
    32  H   10.023965   9.513892   4.957612   3.872385   3.338417
    33  N    9.710519   8.972001   4.695412   3.798730   4.233579
    34  O   10.820965  10.120809   5.738056   4.760361   4.914562
    35  O    9.630773   8.801288   4.895314   4.196073   4.954108
                   16         17         18         19         20
    16  C    0.000000
    17  C    2.828652   0.000000
    18  C    1.397934   2.434839   0.000000
    19  H    1.083897   3.912472   2.153089   0.000000
    20  C    2.415327   1.382730   1.395927   3.397270   0.000000
    21  H    3.911993   1.083393   3.414461   4.995765   2.149088
    22  N    3.652124   2.373002   4.128906   4.539034   3.614697
    23  N    4.725379   3.355652   5.239433   5.559725   4.665531
    24  N   11.895417  11.880988  12.995190  12.091625  12.965583
    25  O   12.040098  11.734852  13.055072  12.341700  12.894099
    26  O   12.838699  12.973305  13.979398  12.965448  14.017674
    27  F    5.816700   6.406777   6.964711   5.955255   7.193691
    28  F    4.028920   4.154010   4.953697   4.491751   4.981971
    29  F    5.527044   5.373160   6.529872   5.965464   6.442049
    30  F    4.189775   5.228328   5.475154   4.262782   5.877183
    31  B    4.751328   5.163558   5.868221   5.038018   6.014505
    32  H    3.377739   2.117212   2.129026   4.270836   1.069976
    33  N    2.521469   3.776317   1.489995   2.737607   2.483665
    34  O    3.606576   4.129804   2.335137   3.948475   2.747122
    35  O    2.806945   4.765042   2.335014   2.522370   3.580203
                   21         22         23         24         25
    21  H    0.000000
    22  N    2.641363   0.000000
    23  N    3.367762   1.111893   0.000000
    24  N   12.064694   9.615237   8.859322   0.000000
    25  O   11.809149   9.457811   8.611521   1.224137   0.000000
    26  O   13.198182  10.728057  10.010222   1.224612   2.187986
    27  F    6.941647   4.580396   4.464525   6.251322   6.557300
    28  F    4.687676   2.602980   2.853421   8.143576   8.202404
    29  F    5.709487   3.099687   2.609407   6.646676   6.647217
    30  F    5.951825   3.589908   3.803289   7.922951   8.220720
    31  B    5.708036   3.259521   3.226740   7.148058   7.315701
    32  H    2.452612   4.483208   5.469253  13.905556  13.787377
    33  N    4.632746   5.618070   6.728051  14.334571  14.441554
    34  O    4.770255   6.265217   7.352274  15.276702  15.318379
    35  O    5.706032   6.319984   7.424638  14.522672  14.730119
                   26         27         28         29         30
    26  O    0.000000
    27  F    7.121413   0.000000
    28  F    9.138152   2.313759   0.000000
    29  F    7.717373   2.296166   2.295288   0.000000
    30  F    8.808922   2.295322   2.295686   2.298044   0.000000
    31  B    8.114193   1.396164   1.395917   1.420390   1.419836
    32  H   14.973738   8.194622   5.945382   7.413840   6.941737
    33  N   15.282796   8.201068   6.288077   7.949497   6.702533
    34  O   16.256948   9.199690   7.166704   8.839579   7.776341
    35  O   15.406636   8.322176   6.645829   8.308983   6.766334
                   31         32         33         34         35
    31  B    0.000000
    32  H    7.030286   0.000000
    33  N    7.192654   2.653562   0.000000
    34  O    8.163704   2.409715   1.224019   0.000000
    35  O    7.420664   3.868657   1.223960   2.153537   0.000000
 Symmetry turned off by external request.
 Stoichiometry    C12H8BF4N6O4(1+)
 Framework group  C1[X(C12H8BF4N6O4)]
 Deg. of freedom    99
 Full point group                 C1      NOp   1
 Rotational constants (GHZ):      0.5889732      0.0559232      0.0522993
 Standard basis: Aug-CC-pVDZ (5D, 7F)
 Integral buffers will be    131072 words long.
 Raffenetti 2 integral format.
 Two-electron integral symmetry is turned off.
   693 basis functions,  1249 primitive gaussians,   747 cartesian basis functions
    97 alpha electrons       97 beta electrons
       nuclear repulsion energy      2281.4852082351 Hartrees.
 NAtoms=   35 NActive=   35 NUniq=   35 SFac= 1.00D+00 NAtFMM=   50 NAOKFM=F Big=F
 One-electron integrals computed using PRISM.
 NBasis=   693 RedAO= T  NBF=   693
 NBsUse=   693 1.00D-06 NBFU=   693
 Harris functional with IExCor=  402 diagonalized for initial guess.
 ExpMin= 2.38D-02 ExpMax= 1.47D+04 ExpMxC= 5.03D+02 IAcc=3 IRadAn=         0 AccDes= 0.00D+00
 HarFok:  IExCor=  402 AccDes= 0.00D+00 IRadAn=         0 IDoV= 1
 ScaDFX=  1.000000  1.000000  1.000000  1.000000
 FoFCou: FMM=F IPFlag=           0 FMFlag=      100000 FMFlg1=           0
         NFxFlg=           0 DoJE=T BraDBF=F KetDBF=T FulRan=T
         Omega=  0.000000  0.000000  1.000000  0.000000  0.000000 ICntrl=     500 IOpCl=  0
         NMat0=    1 NMatS0=    1 NMatT0=    0 NMatD0=    1 NMtDS0=    0 NMtDT0=    0
         I1Cent=           4 NGrid=           0.
 Symmetry not used in FoFCou.
 Requested convergence on RMS density matrix=1.00D-08 within 128 cycles.
 Requested convergence on MAX density matrix=1.00D-06.
 Requested convergence on             energy=1.00D-06.
 No special actions if energy rises.
 EnCoef did     2 forward-backward iterations
 EnCoef did     3 forward-backward iterations
 Restarting incremental Fock formation.
 Restarting incremental Fock formation.
 Restarting incremental Fock formation.
 Restarting incremental Fock formation.
 Restarting incremental Fock formation.
 Restarting incremental Fock formation.
 >>>>>>>>>> Convergence criterion not met.
 SCF Done:  E(RB3LYP) =  -1515.57152173     A.U. after  129 cycles
             Convg  =    0.1527D-07             -V/T =  2.0057
 LinEq1:  Iter=  0 NonCon=     1 RMS=3.89D-08 Max=1.11D-06
 AX will form     1 AO Fock derivatives at one time.
 LinEq1:  Iter=  1 NonCon=     1 RMS=8.59D-09 Max=6.42D-07
 LinEq1:  Iter=  2 NonCon=     1 RMS=1.01D-08 Max=5.28D-07
 LinEq1:  Iter=  3 NonCon=     1 RMS=6.70D-09 Max=5.18D-07
 LinEq1:  Iter=  4 NonCon=     1 RMS=5.58D-09 Max=2.30D-07
 LinEq1:  Iter=  5 NonCon=     1 RMS=5.49D-09 Max=3.39D-07
 LinEq1:  Iter=  6 NonCon=     1 RMS=2.67D-09 Max=2.04D-07
 LinEq1:  Iter=  7 NonCon=     1 RMS=2.84D-09 Max=2.28D-07
 LinEq1:  Iter=  8 NonCon=     1 RMS=1.46D-09 Max=6.62D-08
 LinEq1:  Iter=  9 NonCon=     1 RMS=1.87D-09 Max=1.28D-07
 LinEq1:  Iter= 10 NonCon=     1 RMS=1.57D-09 Max=8.41D-08
 LinEq1:  Iter= 11 NonCon=     1 RMS=1.54D-09 Max=7.76D-08
 LinEq1:  Iter= 12 NonCon=     1 RMS=1.79D-09 Max=1.20D-07
 LinEq1:  Iter= 13 NonCon=     1 RMS=1.19D-09 Max=3.95D-08
 LinEq1:  Iter= 14 NonCon=     1 RMS=9.29D-10 Max=3.51D-08
 LinEq1:  Iter= 15 NonCon=     1 RMS=6.53D-10 Max=4.02D-08
 LinEq1:  Iter= 16 NonCon=     1 RMS=5.20D-10 Max=2.78D-08
 LinEq1:  Iter= 17 NonCon=     1 RMS=4.50D-10 Max=3.30D-08
 LinEq1:  Iter= 18 NonCon=     1 RMS=4.27D-10 Max=1.98D-08
 LinEq1:  Iter= 19 NonCon=     1 RMS=2.92D-10 Max=1.24D-08
 LinEq1:  Iter= 20 NonCon=     1 RMS=2.85D-10 Max=1.66D-08
 LinEq1:  Iter= 21 NonCon=     1 RMS=3.17D-10 Max=1.17D-08
 LinEq1:  Iter= 22 NonCon=     1 RMS=2.76D-10 Max=6.29D-09
 LinEq1:  Iter= 23 NonCon=     1 RMS=1.81D-10 Max=4.50D-09
 LinEq1:  Iter= 24 NonCon=     1 RMS=1.41D-10 Max=4.69D-09
 LinEq1:  Iter= 25 NonCon=     1 RMS=1.33D-10 Max=3.61D-09
 LinEq1:  Iter= 26 NonCon=     1 RMS=9.96D-11 Max=3.19D-09
 LinEq1:  Iter= 27 NonCon=     1 RMS=7.01D-11 Max=3.17D-09
 LinEq1:  Iter= 28 NonCon=     1 RMS=7.37D-11 Max=3.39D-09
 LinEq1:  Iter= 29 NonCon=     1 RMS=7.04D-11 Max=2.48D-09
 LinEq1:  Iter= 30 NonCon=     1 RMS=6.07D-11 Max=2.18D-09
 LinEq1:  Iter= 31 NonCon=     1 RMS=5.35D-11 Max=1.91D-09
 LinEq1:  Iter= 32 NonCon=     1 RMS=4.58D-11 Max=1.88D-09
 LinEq1:  Iter= 33 NonCon=     1 RMS=4.58D-11 Max=2.13D-09
 LinEq1:  Iter= 34 NonCon=     1 RMS=4.14D-11 Max=2.60D-09
 LinEq1:  Iter= 35 NonCon=     1 RMS=3.83D-11 Max=1.64D-09
 LinEq1:  Iter= 36 NonCon=     0 RMS=3.78D-11 Max=6.93D-10
 Linear equations converged to 1.283D-10 1.283D-09 after    36 iterations.
 LinEq1:  Iter=  0 NonCon=     1 RMS=5.46D-08 Max=1.69D-06
 LinEq1:  Iter=  1 NonCon=     1 RMS=4.56D-09 Max=9.42D-08
 LinEq1:  Iter=  2 NonCon=     1 RMS=1.20D-09 Max=3.42D-08
 LinEq1:  Iter=  3 NonCon=     1 RMS=7.44D-10 Max=4.10D-08
 LinEq1:  Iter=  4 NonCon=     1 RMS=1.02D-09 Max=9.29D-08
 LinEq1:  Iter=  5 NonCon=     1 RMS=8.60D-10 Max=5.10D-08
 LinEq1:  Iter=  6 NonCon=     1 RMS=9.31D-10 Max=4.64D-08
 LinEq1:  Iter=  7 NonCon=     1 RMS=1.03D-09 Max=4.23D-08
 LinEq1:  Iter=  8 NonCon=     1 RMS=1.10D-09 Max=6.69D-08
 LinEq1:  Iter=  9 NonCon=     1 RMS=1.27D-09 Max=7.94D-08
 LinEq1:  Iter= 10 NonCon=     1 RMS=9.23D-10 Max=2.88D-08
 LinEq1:  Iter= 11 NonCon=     1 RMS=9.50D-10 Max=4.49D-08
 LinEq1:  Iter= 12 NonCon=     1 RMS=9.76D-10 Max=8.95D-08
 LinEq1:  Iter= 13 NonCon=     1 RMS=1.24D-09 Max=6.66D-08
 LinEq1:  Iter= 14 NonCon=     1 RMS=1.12D-09 Max=7.09D-08
 LinEq1:  Iter= 15 NonCon=     1 RMS=1.18D-09 Max=5.75D-08
 LinEq1:  Iter= 16 NonCon=     1 RMS=6.34D-10 Max=3.25D-08
 LinEq1:  Iter= 17 NonCon=     1 RMS=6.80D-10 Max=3.08D-08
 LinEq1:  Iter= 18 NonCon=     1 RMS=6.64D-10 Max=3.17D-08
 LinEq1:  Iter= 19 NonCon=     1 RMS=5.65D-10 Max=2.36D-08
 LinEq1:  Iter= 20 NonCon=     1 RMS=4.12D-10 Max=2.38D-08
 LinEq1:  Iter= 21 NonCon=     1 RMS=3.42D-10 Max=1.17D-08
 LinEq1:  Iter= 22 NonCon=     1 RMS=2.56D-10 Max=5.41D-09
 LinEq1:  Iter= 23 NonCon=     1 RMS=2.12D-10 Max=9.02D-09
 LinEq1:  Iter= 24 NonCon=     1 RMS=1.92D-10 Max=1.05D-08
 LinEq1:  Iter= 25 NonCon=     1 RMS=2.44D-10 Max=1.92D-08
 LinEq1:  Iter= 26 NonCon=     1 RMS=2.23D-10 Max=1.24D-08
 LinEq1:  Iter= 27 NonCon=     1 RMS=1.43D-10 Max=4.36D-09
 LinEq1:  Iter= 28 NonCon=     1 RMS=1.51D-10 Max=5.29D-09
 LinEq1:  Iter= 29 NonCon=     1 RMS=1.16D-10 Max=5.08D-09
 LinEq1:  Iter= 30 NonCon=     1 RMS=9.50D-11 Max=5.98D-09
 LinEq1:  Iter= 31 NonCon=     1 RMS=8.78D-11 Max=6.18D-09
 LinEq1:  Iter= 32 NonCon=     1 RMS=7.63D-11 Max=4.41D-09
 LinEq1:  Iter= 33 NonCon=     0 RMS=5.54D-11 Max=1.29D-09
 Linear equations converged to 1.905D-10 1.905D-09 after    33 iterations.
 LinEq1:  Iter=  0 NonCon=     1 RMS=5.18D-08 Max=1.59D-06
 LinEq1:  Iter=  1 NonCon=     1 RMS=4.10D-09 Max=7.37D-08
 LinEq1:  Iter=  2 NonCon=     1 RMS=1.32D-09 Max=3.07D-08
 LinEq1:  Iter=  3 NonCon=     1 RMS=5.84D-10 Max=3.72D-08
 LinEq1:  Iter=  4 NonCon=     1 RMS=8.83D-10 Max=7.39D-08
 LinEq1:  Iter=  5 NonCon=     1 RMS=9.32D-10 Max=4.81D-08
 LinEq1:  Iter=  6 NonCon=     1 RMS=9.44D-10 Max=5.70D-08
 LinEq1:  Iter=  7 NonCon=     1 RMS=1.13D-09 Max=4.23D-08
 LinEq1:  Iter=  8 NonCon=     1 RMS=1.00D-09 Max=6.85D-08
 LinEq1:  Iter=  9 NonCon=     1 RMS=1.12D-09 Max=6.33D-08
 LinEq1:  Iter= 10 NonCon=     1 RMS=7.71D-10 Max=2.43D-08
 LinEq1:  Iter= 11 NonCon=     1 RMS=8.37D-10 Max=4.02D-08
 LinEq1:  Iter= 12 NonCon=     1 RMS=8.81D-10 Max=8.12D-08
 LinEq1:  Iter= 13 NonCon=     1 RMS=1.03D-09 Max=5.45D-08
 LinEq1:  Iter= 14 NonCon=     1 RMS=8.92D-10 Max=5.71D-08
 LinEq1:  Iter= 15 NonCon=     1 RMS=9.19D-10 Max=4.34D-08
 LinEq1:  Iter= 16 NonCon=     1 RMS=7.70D-10 Max=3.72D-08
 LinEq1:  Iter= 17 NonCon=     1 RMS=8.54D-10 Max=4.20D-08
 LinEq1:  Iter= 18 NonCon=     1 RMS=7.83D-10 Max=3.42D-08
 LinEq1:  Iter= 19 NonCon=     1 RMS=8.45D-10 Max=3.83D-08
 LinEq1:  Iter= 20 NonCon=     1 RMS=4.52D-10 Max=2.28D-08
 LinEq1:  Iter= 21 NonCon=     1 RMS=3.72D-10 Max=1.68D-08
 LinEq1:  Iter= 22 NonCon=     1 RMS=2.83D-10 Max=7.11D-09
 LinEq1:  Iter= 23 NonCon=     1 RMS=1.94D-10 Max=7.21D-09
 LinEq1:  Iter= 24 NonCon=     1 RMS=1.81D-10 Max=1.01D-08
 LinEq1:  Iter= 25 NonCon=     1 RMS=1.69D-10 Max=1.26D-08
 LinEq1:  Iter= 26 NonCon=     1 RMS=1.74D-10 Max=1.06D-08
 LinEq1:  Iter= 27 NonCon=     1 RMS=1.39D-10 Max=3.02D-09
 LinEq1:  Iter= 28 NonCon=     1 RMS=1.09D-10 Max=3.68D-09
 LinEq1:  Iter= 29 NonCon=     1 RMS=8.82D-11 Max=4.05D-09
 LinEq1:  Iter= 30 NonCon=     1 RMS=7.64D-11 Max=4.43D-09
 LinEq1:  Iter= 31 NonCon=     1 RMS=6.68D-11 Max=4.66D-09
 LinEq1:  Iter= 32 NonCon=     1 RMS=6.68D-11 Max=3.85D-09
 LinEq1:  Iter= 33 NonCon=     0 RMS=5.52D-11 Max=1.64D-09
 Linear equations converged to 1.809D-10 1.809D-09 after    33 iterations.
 LinEq1:  Iter=  0 NonCon=     1 RMS=5.14D-08 Max=1.58D-06
 LinEq1:  Iter=  1 NonCon=     1 RMS=4.16D-09 Max=7.41D-08
 LinEq1:  Iter=  2 NonCon=     1 RMS=1.27D-09 Max=2.47D-08
 LinEq1:  Iter=  3 NonCon=     1 RMS=6.14D-10 Max=3.66D-08
 LinEq1:  Iter=  4 NonCon=     1 RMS=8.92D-10 Max=7.99D-08
 LinEq1:  Iter=  5 NonCon=     1 RMS=8.99D-10 Max=4.38D-08
 LinEq1:  Iter=  6 NonCon=     1 RMS=9.40D-10 Max=5.96D-08
 LinEq1:  Iter=  7 NonCon=     1 RMS=9.38D-10 Max=3.43D-08
 LinEq1:  Iter=  8 NonCon=     1 RMS=9.22D-10 Max=6.34D-08
 LinEq1:  Iter=  9 NonCon=     1 RMS=1.10D-09 Max=5.38D-08
 LinEq1:  Iter= 10 NonCon=     1 RMS=7.58D-10 Max=2.77D-08
 LinEq1:  Iter= 11 NonCon=     1 RMS=8.63D-10 Max=3.46D-08
 LinEq1:  Iter= 12 NonCon=     1 RMS=9.32D-10 Max=8.74D-08
 LinEq1:  Iter= 13 NonCon=     1 RMS=1.09D-09 Max=5.95D-08
 LinEq1:  Iter= 14 NonCon=     1 RMS=9.27D-10 Max=6.50D-08
 LinEq1:  Iter= 15 NonCon=     1 RMS=8.10D-10 Max=3.75D-08
 LinEq1:  Iter= 16 NonCon=     1 RMS=7.26D-10 Max=3.34D-08
 LinEq1:  Iter= 17 NonCon=     1 RMS=7.83D-10 Max=3.67D-08
 LinEq1:  Iter= 18 NonCon=     1 RMS=6.85D-10 Max=3.23D-08
 LinEq1:  Iter= 19 NonCon=     1 RMS=6.42D-10 Max=2.91D-08
 LinEq1:  Iter= 20 NonCon=     1 RMS=4.40D-10 Max=2.22D-08
 LinEq1:  Iter= 21 NonCon=     1 RMS=3.81D-10 Max=1.82D-08
 LinEq1:  Iter= 22 NonCon=     1 RMS=2.55D-10 Max=4.96D-09
 LinEq1:  Iter= 23 NonCon=     1 RMS=2.39D-10 Max=8.01D-09
 LinEq1:  Iter= 24 NonCon=     1 RMS=1.87D-10 Max=9.52D-09
 LinEq1:  Iter= 25 NonCon=     1 RMS=1.81D-10 Max=1.43D-08
 LinEq1:  Iter= 26 NonCon=     1 RMS=1.80D-10 Max=1.03D-08
 LinEq1:  Iter= 27 NonCon=     1 RMS=1.28D-10 Max=3.02D-09
 LinEq1:  Iter= 28 NonCon=     1 RMS=1.18D-10 Max=4.05D-09
 LinEq1:  Iter= 29 NonCon=     1 RMS=8.83D-11 Max=3.75D-09
 LinEq1:  Iter= 30 NonCon=     1 RMS=8.03D-11 Max=4.03D-09
 LinEq1:  Iter= 31 NonCon=     1 RMS=7.80D-11 Max=5.77D-09
 LinEq1:  Iter= 32 NonCon=     1 RMS=7.54D-11 Max=4.64D-09
 LinEq1:  Iter= 33 NonCon=     0 RMS=5.19D-11 Max=1.61D-09
 Linear equations converged to 1.794D-10 1.794D-09 after    33 iterations.
 Search did not lower the energy significantly.
 No lower point found -- try reversing direction.
 LinEq1:  Iter=  0 NonCon=     1 RMS=1.04D-07 Max=3.48D-06
 LinEq1:  Iter=  1 NonCon=     1 RMS=1.00D-08 Max=2.84D-07
 LinEq1:  Iter=  2 NonCon=     1 RMS=2.13D-09 Max=4.33D-08
 LinEq1:  Iter=  3 NonCon=     1 RMS=9.53D-10 Max=5.53D-08
 LinEq1:  Iter=  4 NonCon=     1 RMS=1.28D-09 Max=1.07D-07
 LinEq1:  Iter=  5 NonCon=     1 RMS=1.12D-09 Max=7.09D-08
 LinEq1:  Iter=  6 NonCon=     1 RMS=1.07D-09 Max=5.14D-08
 LinEq1:  Iter=  7 NonCon=     1 RMS=1.08D-09 Max=4.36D-08
 LinEq1:  Iter=  8 NonCon=     1 RMS=1.17D-09 Max=7.26D-08
 LinEq1:  Iter=  9 NonCon=     1 RMS=1.06D-09 Max=3.11D-08
 LinEq1:  Iter= 10 NonCon=     1 RMS=9.12D-10 Max=3.44D-08
 LinEq1:  Iter= 11 NonCon=     1 RMS=8.21D-10 Max=5.01D-08
 LinEq1:  Iter= 12 NonCon=     1 RMS=1.16D-09 Max=9.70D-08
 LinEq1:  Iter= 13 NonCon=     1 RMS=1.16D-09 Max=5.62D-08
 LinEq1:  Iter= 14 NonCon=     1 RMS=1.12D-09 Max=7.30D-08
 LinEq1:  Iter= 15 NonCon=     1 RMS=6.48D-10 Max=3.31D-08
 LinEq1:  Iter= 16 NonCon=     1 RMS=6.96D-10 Max=3.31D-08
 LinEq1:  Iter= 17 NonCon=     1 RMS=6.16D-10 Max=3.05D-08
 LinEq1:  Iter= 18 NonCon=     1 RMS=5.42D-10 Max=2.58D-08
 LinEq1:  Iter= 19 NonCon=     1 RMS=3.85D-10 Max=1.76D-08
 LinEq1:  Iter= 20 NonCon=     1 RMS=3.34D-10 Max=1.47D-08
 LinEq1:  Iter= 21 NonCon=     1 RMS=2.64D-10 Max=7.64D-09
 LinEq1:  Iter= 22 NonCon=     1 RMS=1.81D-10 Max=5.55D-09
 LinEq1:  Iter= 23 NonCon=     1 RMS=1.89D-10 Max=7.04D-09
 LinEq1:  Iter= 24 NonCon=     1 RMS=1.30D-10 Max=7.12D-09
 LinEq1:  Iter= 25 NonCon=     1 RMS=1.43D-10 Max=7.02D-09
 LinEq1:  Iter= 26 NonCon=     1 RMS=1.55D-10 Max=7.61D-09
 LinEq1:  Iter= 27 NonCon=     1 RMS=1.49D-10 Max=6.04D-09
 LinEq1:  Iter= 28 NonCon=     0 RMS=1.11D-10 Max=3.50D-09
 Linear equations converged to 3.537D-10 3.537D-09 after    28 iterations.
 LinEq1:  Iter=  0 NonCon=     1 RMS=8.83D-08 Max=2.93D-06
 LinEq1:  Iter=  1 NonCon=     1 RMS=7.32D-09 Max=2.08D-07
 LinEq1:  Iter=  2 NonCon=     1 RMS=1.61D-09 Max=2.81D-08
 LinEq1:  Iter=  3 NonCon=     1 RMS=8.30D-10 Max=4.81D-08
 LinEq1:  Iter=  4 NonCon=     1 RMS=1.25D-09 Max=1.00D-07
 LinEq1:  Iter=  5 NonCon=     1 RMS=1.10D-09 Max=6.30D-08
 LinEq1:  Iter=  6 NonCon=     1 RMS=1.30D-09 Max=6.93D-08
 LinEq1:  Iter=  7 NonCon=     1 RMS=1.09D-09 Max=4.66D-08
 LinEq1:  Iter=  8 NonCon=     1 RMS=1.39D-09 Max=7.60D-08
 LinEq1:  Iter=  9 NonCon=     1 RMS=9.73D-10 Max=3.43D-08
 LinEq1:  Iter= 10 NonCon=     1 RMS=7.97D-10 Max=2.61D-08
 LinEq1:  Iter= 11 NonCon=     1 RMS=6.91D-10 Max=4.89D-08
 LinEq1:  Iter= 12 NonCon=     1 RMS=1.01D-09 Max=7.58D-08
 LinEq1:  Iter= 13 NonCon=     1 RMS=8.56D-10 Max=5.82D-08
 LinEq1:  Iter= 14 NonCon=     1 RMS=8.95D-10 Max=4.33D-08
 LinEq1:  Iter= 15 NonCon=     1 RMS=5.81D-10 Max=3.32D-08
 LinEq1:  Iter= 16 NonCon=     1 RMS=5.99D-10 Max=2.52D-08
 LinEq1:  Iter= 17 NonCon=     1 RMS=6.51D-10 Max=3.33D-08
 LinEq1:  Iter= 18 NonCon=     1 RMS=6.52D-10 Max=3.09D-08
 LinEq1:  Iter= 19 NonCon=     1 RMS=5.14D-10 Max=2.44D-08
 LinEq1:  Iter= 20 NonCon=     1 RMS=4.00D-10 Max=1.75D-08
 LinEq1:  Iter= 21 NonCon=     1 RMS=2.76D-10 Max=8.34D-09
 LinEq1:  Iter= 22 NonCon=     1 RMS=2.25D-10 Max=6.73D-09
 LinEq1:  Iter= 23 NonCon=     1 RMS=1.81D-10 Max=7.81D-09
 LinEq1:  Iter= 24 NonCon=     1 RMS=1.94D-10 Max=7.20D-09
 LinEq1:  Iter= 25 NonCon=     1 RMS=1.48D-10 Max=6.86D-09
 LinEq1:  Iter= 26 NonCon=     1 RMS=1.65D-10 Max=7.59D-09
 LinEq1:  Iter= 27 NonCon=     1 RMS=1.47D-10 Max=5.39D-09
 LinEq1:  Iter= 28 NonCon=     1 RMS=1.15D-10 Max=5.77D-09
 LinEq1:  Iter= 29 NonCon=     1 RMS=9.77D-11 Max=4.69D-09
 LinEq1:  Iter= 30 NonCon=     1 RMS=8.20D-11 Max=4.40D-09
 LinEq1:  Iter= 31 NonCon=     1 RMS=8.68D-11 Max=4.31D-09
 LinEq1:  Iter= 32 NonCon=     1 RMS=7.82D-11 Max=3.32D-09
 LinEq1:  Iter= 33 NonCon=     0 RMS=7.36D-11 Max=1.40D-09
 Linear equations converged to 2.998D-10 2.998D-09 after    33 iterations.
 LinEq1:  Iter=  0 NonCon=     1 RMS=8.27D-08 Max=2.74D-06
 LinEq1:  Iter=  1 NonCon=     1 RMS=6.44D-09 Max=1.96D-07
 LinEq1:  Iter=  2 NonCon=     1 RMS=1.32D-09 Max=2.58D-08
 LinEq1:  Iter=  3 NonCon=     1 RMS=7.15D-10 Max=4.66D-08
 LinEq1:  Iter=  4 NonCon=     1 RMS=1.00D-09 Max=7.64D-08
 LinEq1:  Iter=  5 NonCon=     1 RMS=9.47D-10 Max=5.77D-08
 LinEq1:  Iter=  6 NonCon=     1 RMS=1.05D-09 Max=5.01D-08
 LinEq1:  Iter=  7 NonCon=     1 RMS=9.15D-10 Max=4.06D-08
 LinEq1:  Iter=  8 NonCon=     1 RMS=1.06D-09 Max=5.87D-08
 LinEq1:  Iter=  9 NonCon=     1 RMS=7.30D-10 Max=2.43D-08
 LinEq1:  Iter= 10 NonCon=     1 RMS=6.87D-10 Max=2.19D-08
 LinEq1:  Iter= 11 NonCon=     1 RMS=5.45D-10 Max=4.33D-08
 LinEq1:  Iter= 12 NonCon=     1 RMS=7.83D-10 Max=5.26D-08
 LinEq1:  Iter= 13 NonCon=     1 RMS=7.24D-10 Max=4.63D-08
 LinEq1:  Iter= 14 NonCon=     1 RMS=7.60D-10 Max=4.16D-08
 LinEq1:  Iter= 15 NonCon=     1 RMS=5.20D-10 Max=2.95D-08
 LinEq1:  Iter= 16 NonCon=     1 RMS=5.81D-10 Max=2.48D-08
 LinEq1:  Iter= 17 NonCon=     1 RMS=6.39D-10 Max=3.09D-08
 LinEq1:  Iter= 18 NonCon=     1 RMS=6.30D-10 Max=3.50D-08
 LinEq1:  Iter= 19 NonCon=     1 RMS=4.46D-10 Max=1.58D-08
 LinEq1:  Iter= 20 NonCon=     1 RMS=3.56D-10 Max=1.87D-08
 LinEq1:  Iter= 21 NonCon=     1 RMS=2.52D-10 Max=7.11D-09
 LinEq1:  Iter= 22 NonCon=     1 RMS=2.03D-10 Max=4.15D-09
 LinEq1:  Iter= 23 NonCon=     1 RMS=1.82D-10 Max=5.82D-09
 LinEq1:  Iter= 24 NonCon=     1 RMS=1.45D-10 Max=5.12D-09
 LinEq1:  Iter= 25 NonCon=     1 RMS=1.33D-10 Max=5.40D-09
 LinEq1:  Iter= 26 NonCon=     1 RMS=1.56D-10 Max=6.62D-09
 LinEq1:  Iter= 27 NonCon=     1 RMS=1.33D-10 Max=6.37D-09
 LinEq1:  Iter= 28 NonCon=     1 RMS=1.15D-10 Max=5.15D-09
 LinEq1:  Iter= 29 NonCon=     1 RMS=9.64D-11 Max=5.42D-09
 LinEq1:  Iter= 30 NonCon=     1 RMS=1.00D-10 Max=4.79D-09
 LinEq1:  Iter= 31 NonCon=     1 RMS=7.96D-11 Max=4.71D-09
 LinEq1:  Iter= 32 NonCon=     0 RMS=7.38D-11 Max=2.41D-09
 Linear equations converged to 2.802D-10 2.802D-09 after    32 iterations.
 Search did not lower the energy significantly.
 No lower point found -- try reversing direction.
 Search did not lower the energy significantly.
 No lower point found -- switch to scaled steepest descent.
 Search did not lower the energy significantly.
 Scaled steepest descent with Shift=0.000 failed.
 Search did not lower the energy significantly.
 Scaled steepest descent with Shift=0.025 failed.
 Search did not lower the energy significantly.
 Scaled steepest descent with Shift=0.050 failed.
 Search did not lower the energy significantly.
 Scaled steepest descent with Shift=0.075 failed.
 Search did not lower the energy significantly.
 No lower point found -- switch to steepest descent.
 Search did not lower the energy significantly.
 Search did not lower the energy significantly.
 Search did not lower the energy significantly.
 No lower point found -- run aborted.
 Error termination via Lnk1e in /home/ubuntu/g09/l508.exe at Thu Mar 21 09:29:24 2019.
 Job cpu time:  4 days  5 hours 38 minutes 32.3 seconds.
 File lengths (MBytes):  RWF=    248 Int=      0 D2E=      0 Chk=     12 Scr=      1
