 Entering Gaussian System, Link 0=/home/ubuntu/g09/g09
 Input=x2-4-NO2-Ph-N2-BF4-v2-RB3LYP-6-31G_dp.gjf
 Output=x2-4-NO2-Ph-N2-BF4-v2-RB3LYP-6-31G_dp.log
 Initial command:
 /home/ubuntu/g09/l1.exe /home/ubuntu/g09/Gau-19820.inp -scrdir=/home/ubuntu/g09/
 Entering Link 1 = /home/ubuntu/g09/l1.exe PID=     19822.
  
 Copyright (c) 1988,1990,1992,1993,1995,1998,2003,2009,2010,
            Gaussian, Inc.  All Rights Reserved.
  
 This is part of the Gaussian(R) 09 program.  It is based on
 the Gaussian(R) 03 system (copyright 2003, Gaussian, Inc.),
 the Gaussian(R) 98 system (copyright 1998, Gaussian, Inc.),
 the Gaussian(R) 94 system (copyright 1995, Gaussian, Inc.),
 the Gaussian 92(TM) system (copyright 1992, Gaussian, Inc.),
 the Gaussian 90(TM) system (copyright 1990, Gaussian, Inc.),
 the Gaussian 88(TM) system (copyright 1988, Gaussian, Inc.),
 the Gaussian 86(TM) system (copyright 1986, Carnegie Mellon
 University), and the Gaussian 82(TM) system (copyright 1983,
 Carnegie Mellon University). Gaussian is a federally registered
 trademark of Gaussian, Inc.
  
 This software contains proprietary and confidential information,
 including trade secrets, belonging to Gaussian, Inc.
  
 This software is provided under written license and may be
 used, copied, transmitted, or stored only in accord with that
 written license.
  
 The following legend is applicable only to US Government
 contracts under FAR:
  
                    RESTRICTED RIGHTS LEGEND
  
 Use, reproduction and disclosure by the US Government is
 subject to restrictions as set forth in subparagraphs (a)
 and (c) of the Commercial Computer Software - Restricted
 Rights clause in FAR 52.227-19.
  
 Gaussian, Inc.
 340 Quinnipiac St., Bldg. 40, Wallingford CT 06492
  
  
 ---------------------------------------------------------------
 Warning -- This program may not be used in any manner that
 competes with the business of Gaussian, Inc. or will provide
 assistance to any competitor of Gaussian, Inc.  The licensee
 of this program is prohibited from giving any competitor of
 Gaussian, Inc. access to this program.  By using this program,
 the user acknowledges that Gaussian, Inc. is engaged in the
 business of creating and licensing software in the field of
 computational chemistry and represents and warrants to the
 licensee that it is not a competitor of Gaussian, Inc. and that
 it will not use this program in any manner prohibited above.
 ---------------------------------------------------------------
  

 Cite this work as:
 Gaussian 09, Revision B.01,
 M. J. Frisch, G. W. Trucks, H. B. Schlegel, G. E. Scuseria, 
 M. A. Robb, J. R. Cheeseman, G. Scalmani, V. Barone, B. Mennucci, 
 G. A. Petersson, H. Nakatsuji, M. Caricato, X. Li, H. P. Hratchian, 
 A. F. Izmaylov, J. Bloino, G. Zheng, J. L. Sonnenberg, M. Hada, 
 M. Ehara, K. Toyota, R. Fukuda, J. Hasegawa, M. Ishida, T. Nakajima, 
 Y. Honda, O. Kitao, H. Nakai, T. Vreven, J. A. Montgomery, Jr., 
 J. E. Peralta, F. Ogliaro, M. Bearpark, J. J. Heyd, E. Brothers, 
 K. N. Kudin, V. N. Staroverov, T. Keith, R. Kobayashi, J. Normand, 
 K. Raghavachari, A. Rendell, J. C. Burant, S. S. Iyengar, J. Tomasi, 
 M. Cossi, N. Rega, J. M. Millam, M. Klene, J. E. Knox, J. B. Cross, 
 V. Bakken, C. Adamo, J. Jaramillo, R. Gomperts, R. E. Stratmann, 
 O. Yazyev, A. J. Austin, R. Cammi, C. Pomelli, J. W. Ochterski, 
 R. L. Martin, K. Morokuma, V. G. Zakrzewski, G. A. Voth, 
 P. Salvador, J. J. Dannenberg, S. Dapprich, A. D. Daniels, 
 O. Farkas, J. B. Foresman, J. V. Ortiz, J. Cioslowski, 
 and D. J. Fox, Gaussian, Inc., Wallingford CT, 2010.
 
 ******************************************
 Gaussian 09:  EM64L-G09RevB.01 12-Aug-2010
                29-Mar-2019 
 ******************************************
 %chk=x2-4-NO2-Ph-N2-BF4-v2-RB3LYP-6-31G_dp.chk
 %nprocs=7
 Will use up to    7 processors via shared memory.
 %mem=200MW
 ------------------------------------------------------------
 # opt=(maxcycles=1000,cartesian) freq freq rb3lyp/6-31G(d,p)
 ------------------------------------------------------------
 1/6=1000,10=7,14=-1,18=10,26=3,38=1/1,3;
 2/12=2,17=6,18=5,29=2,40=1/2;
 3/5=1,6=6,7=101,11=2,16=1,25=1,30=1,71=1,74=-5,116=1/1,2,3;
 4//1;
 5/5=2,38=5/2;
 6/7=2,8=2,9=2,10=2,28=1/1;
 7/7=1,29=1/1,2,3,16;
 1/6=1000,10=7,14=-1,18=10/3(2);
 2/29=1/2;
 99/12=1/99;
 2/29=1/2;
 3/5=1,6=6,7=101,11=2,16=1,25=1,30=1,71=1,74=-5,116=1/1,2,3;
 4/5=5,16=3/1;
 5/5=2,38=5/2;
 7/7=1/1,2,3,16;
 1/6=1000,14=-1,18=10/3(-5);
 2/29=1/2;
 6/7=2,8=2,9=2,10=2,19=2,28=1/1;
 99/9=1,12=1/99;
 -------------------------------------
 x2-4-NO2-Ph-N2-BF4-v2-RB3LYP-6-31G_dp
 -------------------------------------
 Symbolic Z-matrix:
 Charge =  1 Multiplicity = 1
 C                     3.494    -0.1694   -0.3697 
 C                     3.759     1.2044   -0.2389 
 C                     5.0237    1.7495    0.0522 
 C                     6.0761    0.8639    0.2243 
 C                     5.826    -0.5026    0.0924 
 C                     4.5708   -1.0313   -0.2002 
 H                     2.4903   -0.5251   -0.5803 
 H                     5.1646    2.8205    0.1416 
 H                     7.0768    1.2072    0.455 
 H                     4.4494   -2.1041   -0.2848 
 N                     2.7209    2.1024   -0.4314 
 N                     1.9183    2.8503   -0.6123 
 H                    -2.3977    1.3633   -0.3854 
 C                    -3.3979    0.9633   -0.2499 
 C                    -3.642    -0.4162   -0.3882 
 C                    -4.487     1.7636    0.0768 
 C                    -4.8974   -1.0197   -0.2166 
 C                    -5.7558    1.2075    0.2642 
 H                    -4.344     2.8316    0.1941 
 C                    -5.9358   -0.1686    0.114 
 H                    -5.0669   -2.084    -0.3274 
 N                    -2.594    -1.2515   -0.7379 
 N                    -1.7801   -1.9428   -1.0477 
 N                     6.9658   -1.445     0.2748 
 O                     6.7197   -2.6374    0.1478 
 O                     8.0539   -0.9471    0.5352 
 F                     1.143     0.6875    1.0663 
 F                    -1.0329   -0.096     0.9951 
 F                     0.4405   -0.6214   -0.6846 
 F                    -0.3397    1.5295   -0.4703 
 B                     0.0527    0.3725    0.2531 
 H                    -6.9128   -0.5797    0.26 
 N                    -6.9321    2.0489    0.6226 
 O                    -8.016     1.5004    0.7727 
 O                    -6.7671    3.2547    0.7526 
 

 GradGradGradGradGradGradGradGradGradGradGradGradGradGradGradGradGradGrad
 Berny optimization.
 Initialization pass.
 No Z-matrix variables, so optimization will use Cartesian coordinates.
 Trust Radius=3.00D-01 FncErr=1.00D-07 GrdErr=1.00D-06
 Number of steps in this run=    210 maximum allowed number of steps=    210.
 GradGradGradGradGradGradGradGradGradGradGradGradGradGradGradGradGradGrad

 ---------------------------------------------------------------------------------------------------
                            Z-MATRIX (ANGSTROMS AND DEGREES)
   CD    Cent   Atom    N1       Length/X        N2       Alpha/Y        N3        Beta/Z          J
 ---------------------------------------------------------------------------------------------------
      1      1  C        0   3.494000         -0.169400         -0.369700
      2      2  C        0   3.759000          1.204400         -0.238900
      3      3  C        0   5.023700          1.749500          0.052200
      4      4  C        0   6.076100          0.863900          0.224300
      5      5  C        0   5.826000         -0.502600          0.092400
      6      6  C        0   4.570800         -1.031300         -0.200200
      7      7  H        0   2.490300         -0.525100         -0.580300
      8      8  H        0   5.164600          2.820500          0.141600
      9      9  H        0   7.076800          1.207200          0.455000
     10     10  H        0   4.449400         -2.104100         -0.284800
     11     11  N        0   2.720900          2.102400         -0.431400
     12     12  N        0   1.918300          2.850300         -0.612300
     13     13  H        0  -2.397700          1.363300         -0.385400
     14     14  C        0  -3.397900          0.963300         -0.249900
     15     15  C        0  -3.642000         -0.416200         -0.388200
     16     16  C        0  -4.487000          1.763600          0.076800
     17     17  C        0  -4.897400         -1.019700         -0.216600
     18     18  C        0  -5.755800          1.207500          0.264200
     19     19  H        0  -4.344000          2.831600          0.194100
     20     20  C        0  -5.935800         -0.168600          0.114000
     21     21  H        0  -5.066900         -2.084000         -0.327400
     22     22  N        0  -2.594000         -1.251500         -0.737900
     23     23  N        0  -1.780100         -1.942800         -1.047700
     24     24  N        0   6.965800         -1.445000          0.274800
     25     25  O        0   6.719700         -2.637400          0.147800
     26     26  O        0   8.053900         -0.947100          0.535200
     27     27  F        0   1.143000          0.687500          1.066300
     28     28  F        0  -1.032900         -0.096000          0.995100
     29     29  F        0   0.440500         -0.621400         -0.684600
     30     30  F        0  -0.339700          1.529500         -0.470300
     31     31  B        0   0.052700          0.372500          0.253100
     32     32  H        0  -6.912800         -0.579700          0.260000
     33     33  N        0  -6.932100          2.048900          0.622600
     34     34  O        0  -8.016000          1.500400          0.772700
     35     35  O        0  -6.767100          3.254700          0.752600
 ---------------------------------------------------------------------------------------------------
                         Z-Matrix orientation:                         
 ---------------------------------------------------------------------
 Center     Atomic      Atomic             Coordinates (Angstroms)
 Number     Number       Type             X           Y           Z
 ---------------------------------------------------------------------
      1          6           0        3.494000   -0.169400   -0.369700
      2          6           0        3.759000    1.204400   -0.238900
      3          6           0        5.023700    1.749500    0.052200
      4          6           0        6.076100    0.863900    0.224300
      5          6           0        5.826000   -0.502600    0.092400
      6          6           0        4.570800   -1.031300   -0.200200
      7          1           0        2.490300   -0.525100   -0.580300
      8          1           0        5.164600    2.820500    0.141600
      9          1           0        7.076800    1.207200    0.455000
     10          1           0        4.449400   -2.104100   -0.284800
     11          7           0        2.720900    2.102400   -0.431400
     12          7           0        1.918300    2.850300   -0.612300
     13          1           0       -2.397700    1.363300   -0.385400
     14          6           0       -3.397900    0.963300   -0.249900
     15          6           0       -3.642000   -0.416200   -0.388200
     16          6           0       -4.487000    1.763600    0.076800
     17          6           0       -4.897400   -1.019700   -0.216600
     18          6           0       -5.755800    1.207500    0.264200
     19          1           0       -4.344000    2.831600    0.194100
     20          6           0       -5.935800   -0.168600    0.114000
     21          1           0       -5.066900   -2.084000   -0.327400
     22          7           0       -2.594000   -1.251500   -0.737900
     23          7           0       -1.780100   -1.942800   -1.047700
     24          7           0        6.965800   -1.445000    0.274800
     25          8           0        6.719700   -2.637400    0.147800
     26          8           0        8.053900   -0.947100    0.535200
     27          9           0        1.143000    0.687500    1.066300
     28          9           0       -1.032900   -0.096000    0.995100
     29          9           0        0.440500   -0.621400   -0.684600
     30          9           0       -0.339700    1.529500   -0.470300
     31          5           0        0.052700    0.372500    0.253100
     32          1           0       -6.912800   -0.579700    0.260000
     33          7           0       -6.932100    2.048900    0.622600
     34          8           0       -8.016000    1.500400    0.772700
     35          8           0       -6.767100    3.254700    0.752600
 ---------------------------------------------------------------------
                    Distance matrix (angstroms):
                    1          2          3          4          5
     1  C    0.000000
     2  C    1.405226   0.000000
     3  C    2.490012   1.407601   0.000000
     4  C    2.843903   2.387351   1.386164   0.000000
     5  C    2.400580   2.701129   2.391078   1.395446   0.000000
     6  C    1.389640   2.378838   2.828723   2.457216   1.393078
     7  H    1.085490   2.171940   3.462943   3.928697   3.402929
     8  H    3.462923   2.175378   1.083922   2.160082   3.388638
     9  H    3.925763   3.389587   2.161378   1.082810   2.149278
    10  H    2.159412   3.380079   3.910706   3.422625   2.145253
    11  N    2.400534   1.386042   2.379348   3.636096   4.086813
    12  N    3.414714   2.497317   3.361076   4.683267   5.196986
    13  H    6.087819   6.160492   7.444315   8.510371   8.446249
    14  C    6.985388   7.160968   8.463612   9.486381   9.345928
    15  C    7.140291   7.577825   8.943074   9.821165   9.480584
    16  C    8.223881   8.270967   9.510742  10.602372  10.559066
    17  C    8.435760   8.937582  10.303832  11.142713  10.740306
    18  C    9.373179   9.528092  10.795199  11.836955  11.708631
    19  H    8.411784   8.276103   9.431059  10.604303  10.703090
    20  C    9.442198   9.797898  11.126256  12.056698  11.766561
    21  H    8.772485   9.419019  10.800927  11.539538  11.015095
    22  N    6.194373   6.829426   8.225546   8.976156   8.493918
    23  N    5.605423   6.421889   7.818859   8.438923   7.824753
    24  N    3.754455   4.191274   3.745148   2.474901   1.490145
    25  O    4.094383   4.865666   4.704301   3.560783   2.314982
    26  O    4.713422   4.865629   4.084979   2.699643   2.314561
    27  F    2.885061   2.968870   4.149226   5.007550   4.929027
    28  F    4.728730   5.116259   6.401354   7.214806   6.929986
    29  F    3.102794   3.813743   5.212462   5.898492   5.442559
    30  F    4.194477   4.118079   5.393280   6.487525   6.516281
    31  B    3.538938   3.830246   5.162105   6.043480   5.841457
    32  H   10.433904  10.831400  12.163404  13.068924  12.740136
    33  N   10.705563  10.758949  11.973143  13.068134  13.021535
    34  O   11.686463  11.822080  13.061966  14.117123  14.002706
    35  O   10.875394  10.769660  11.907105  13.074510  13.158242
                    6          7          8          9         10
     6  C    0.000000
     7  H    2.174671   0.000000
     8  H    3.912261   4.343508   0.000000
     9  H    3.423479   5.010857   2.521401   0.000000
    10  H    1.082957   2.533502   4.994498   4.291298   0.000000
    11  N    3.646321   2.641799   2.610683   4.534419   4.550148
    12  N    4.719364   3.423672   3.332824   5.518064   5.573132
    13  H    7.370780   5.243719   7.719426   9.512980   7.675660
    14  C    8.214687   6.082384   8.770340  10.501224   8.425573
    15  C    8.237947   6.136275   9.397506  10.873780   8.266224
    16  C    9.483245   7.372425   9.709512  11.583354   9.744183
    17  C    9.468221   7.413165  10.775866  12.198016   9.409742
    18  C   10.576699   8.468368  11.039562  12.834018  10.743100
    19  H    9.723740   7.653417   9.508751  11.538692  10.095264
    20  C   10.546640   8.462169  11.495841  13.089571  10.571546
    21  H    9.695856   7.720453  11.355953  12.606094   9.516417
    22  N    7.188322   5.138346   8.806281  10.049507   7.109269
    23  N    6.471709   4.523787   8.504841   9.519731   6.278113
    24  N    2.476449   4.648388   4.632122   2.660631   2.660796
    25  O    2.705260   4.783280   5.675125   3.873350   2.371880
    26  O    3.560883   5.689997   4.764219   2.366889   3.873431
    27  F    4.038330   2.448858   4.645215   5.987801   4.533297
    28  F    5.805599   3.883162   6.902423   8.231481   5.977142
    29  F    4.178761   2.054710   5.903084   6.977316   4.292962
    30  F    5.544697   3.498911   5.686688   7.480944   6.014394
    31  B    4.752827   2.728028   5.668920   7.076402   5.074826
    32  H   11.501687   9.440730  12.547469  14.104607  11.476942
    33  N   11.936555   9.841446  12.130823  14.035164  12.149458
    34  O   12.875697  10.784971  13.261567  15.098990  13.019098
    35  O   12.158355  10.087763  11.955221  13.997657  12.474085
                   11         12         13         14         15
    11  N    0.000000
    12  N    1.111866   0.000000
    13  H    5.171890   4.570614   0.000000
    14  C    6.226572   5.652794   1.085707   0.000000
    15  C    6.843370   6.452688   2.171384   1.407740   0.000000
    16  C    7.233732   6.533272   2.176934   1.390450   2.383648
    17  C    8.236027   7.847754   3.457699   2.486342   1.403456
    18  C    8.552143   7.896762   3.423900   2.425618   2.744117
    19  H    7.129923   6.314035   2.505955   2.140744   3.373438
    20  C    8.966234   8.445600   3.887707   2.802598   2.361150
    21  H    8.842318   8.556956   4.360260   3.475285   2.194446
    22  N    6.292118   6.099294   2.645745   2.406187   1.385034
    23  N    6.082966   6.069723   3.427881   3.420406   2.496421
    24  N    5.576911   6.686838   9.797834  10.652769  10.678175
    25  O    6.228289   7.331169   9.970802  10.746583  10.610648
    26  O    6.218895   7.306339  10.743435  11.636569  11.744301
    27  F    2.595152   2.845434   3.885961   4.735844   5.121518
    28  F    4.578087   4.469228   2.428583   2.874955   2.970429
    29  F    3.561379   3.773834   3.476195   4.175351   4.098386
    30  F    3.114001   2.619779   2.066445   3.117971   3.833755
    31  B    3.252750   3.220074   2.719159   3.536763   3.831987
    32  H   10.023965   9.513892   4.957612   3.872385   3.338417
    33  N    9.710519   8.972001   4.695412   3.798730   4.233579
    34  O   10.820965  10.120809   5.738056   4.760361   4.914562
    35  O    9.630773   8.801288   4.895314   4.196073   4.954108
                   16         17         18         19         20
    16  C    0.000000
    17  C    2.828652   0.000000
    18  C    1.397934   2.434839   0.000000
    19  H    1.083897   3.912472   2.153089   0.000000
    20  C    2.415327   1.382730   1.395927   3.397270   0.000000
    21  H    3.911993   1.083393   3.414461   4.995765   2.149088
    22  N    3.652124   2.373002   4.128906   4.539034   3.614697
    23  N    4.725379   3.355652   5.239433   5.559725   4.665531
    24  N   11.895417  11.880988  12.995190  12.091625  12.965583
    25  O   12.040098  11.734852  13.055072  12.341700  12.894099
    26  O   12.838699  12.973305  13.979398  12.965448  14.017674
    27  F    5.816700   6.406777   6.964711   5.955255   7.193691
    28  F    4.028920   4.154010   4.953697   4.491751   4.981971
    29  F    5.527044   5.373160   6.529872   5.965464   6.442049
    30  F    4.189775   5.228328   5.475154   4.262782   5.877183
    31  B    4.751328   5.163558   5.868221   5.038018   6.014505
    32  H    3.377739   2.117212   2.129026   4.270836   1.069976
    33  N    2.521469   3.776317   1.489995   2.737607   2.483665
    34  O    3.606576   4.129804   2.335137   3.948475   2.747122
    35  O    2.806945   4.765042   2.335014   2.522370   3.580203
                   21         22         23         24         25
    21  H    0.000000
    22  N    2.641363   0.000000
    23  N    3.367762   1.111893   0.000000
    24  N   12.064694   9.615237   8.859322   0.000000
    25  O   11.809149   9.457811   8.611521   1.224137   0.000000
    26  O   13.198182  10.728057  10.010222   1.224612   2.187986
    27  F    6.941647   4.580396   4.464525   6.251322   6.557300
    28  F    4.687676   2.602980   2.853421   8.143576   8.202404
    29  F    5.709487   3.099687   2.609407   6.646676   6.647217
    30  F    5.951825   3.589908   3.803289   7.922951   8.220720
    31  B    5.708036   3.259521   3.226740   7.148058   7.315701
    32  H    2.452612   4.483208   5.469253  13.905556  13.787377
    33  N    4.632746   5.618070   6.728051  14.334571  14.441554
    34  O    4.770255   6.265217   7.352274  15.276702  15.318379
    35  O    5.706032   6.319984   7.424638  14.522672  14.730119
                   26         27         28         29         30
    26  O    0.000000
    27  F    7.121413   0.000000
    28  F    9.138152   2.313759   0.000000
    29  F    7.717373   2.296166   2.295288   0.000000
    30  F    8.808922   2.295322   2.295686   2.298044   0.000000
    31  B    8.114193   1.396164   1.395917   1.420390   1.419836
    32  H   14.973738   8.194622   5.945382   7.413840   6.941737
    33  N   15.282796   8.201068   6.288077   7.949497   6.702533
    34  O   16.256948   9.199690   7.166704   8.839579   7.776341
    35  O   15.406636   8.322176   6.645829   8.308983   6.766334
                   31         32         33         34         35
    31  B    0.000000
    32  H    7.030286   0.000000
    33  N    7.192654   2.653562   0.000000
    34  O    8.163704   2.409715   1.224019   0.000000
    35  O    7.420664   3.868657   1.223960   2.153537   0.000000
 Stoichiometry    C12H8BF4N6O4(1+)
 Framework group  C1[X(C12H8BF4N6O4)]
 Deg. of freedom    99
 Full point group                 C1      NOp   1
 Largest Abelian subgroup         C1      NOp   1
 Largest concise Abelian subgroup C1      NOp   1
                         Standard orientation:                         
 ---------------------------------------------------------------------
 Center     Atomic      Atomic             Coordinates (Angstroms)
 Number     Number       Type             X           Y           Z
 ---------------------------------------------------------------------
      1          6           0       -3.495189    0.135224   -0.354111
      2          6           0       -3.586308   -1.267044   -0.353967
      3          6           0       -4.769877   -1.990300   -0.114375
      4          6           0       -5.921509   -1.262755    0.142284
      5          6           0       -5.844285    0.130551    0.140370
      6          6           0       -4.668131    0.836566   -0.102260
      7          1           0       -2.546088    0.631335   -0.531224
      8          1           0       -4.775897   -3.074133   -0.126856
      9          1           0       -6.868908   -1.748134    0.340580
     10          1           0       -4.681620    1.919298   -0.084806
     11          7           0       -2.447595   -2.006700   -0.632093
     12          7           0       -1.560985   -2.628505   -0.884138
     13          1           0        2.540250   -0.643683   -0.522392
     14          6           0        3.484900   -0.136791   -0.350759
     15          6           0        3.554478    1.269211   -0.357804
     16          6           0        4.668879   -0.822409   -0.102819
     17          6           0        4.727613    2.005490   -0.131231
     18          6           0        5.861384   -0.132766    0.134968
     19          1           0        4.660767   -1.906163   -0.087239
     20          6           0        5.867627    1.263016    0.115833
     21          1           0        4.762560    3.088278   -0.140724
     22          7           0        2.406646    1.996680   -0.625368
     23          7           0        1.509443    2.607307   -0.867166
     24          7           0       -7.089536    0.902350    0.412779
     25          8           0       -6.994658    2.122730    0.399224
     26          8           0       -8.104124    0.250590    0.626074
     27          9           0       -1.037677   -0.553484    0.991210
     28          9           0        1.023343    0.498026    0.992041
     29          9           0       -0.525522    0.991473   -0.628413
     30          9           0        0.517740   -1.056097   -0.620174
     31          5           0       -0.005457   -0.030136    0.210249
     32          1           0        6.788020    1.776996    0.299000
     33          7           0        7.137386   -0.851104    0.410458
     34          8           0        8.146886   -0.188482    0.610617
     35          8           0        7.124675   -2.074904    0.425629
 ---------------------------------------------------------------------
 Rotational constants (GHZ):      0.5889732      0.0559232      0.0522993
 Standard basis: 6-31G(d,p) (6D, 7F)
 There are   445 symmetry adapted basis functions of A   symmetry.
 Integral buffers will be    131072 words long.
 Raffenetti 2 integral format.
 Two-electron integral symmetry is turned on.
   445 basis functions,   812 primitive gaussians,   445 cartesian basis functions
    97 alpha electrons       97 beta electrons
       nuclear repulsion energy      2281.4852082351 Hartrees.
 NAtoms=   35 NActive=   35 NUniq=   35 SFac= 1.00D+00 NAtFMM=   50 NAOKFM=F Big=F
 One-electron integrals computed using PRISM.
 NBasis=   445 RedAO= T  NBF=   445
 NBsUse=   445 1.00D-06 NBFU=   445
 Harris functional with IExCor=  402 diagonalized for initial guess.
 ExpMin= 1.27D-01 ExpMax= 7.00D+03 ExpMxC= 1.05D+03 IAcc=1 IRadAn=         1 AccDes= 0.00D+00
 HarFok:  IExCor=  402 AccDes= 0.00D+00 IRadAn=         1 IDoV= 1
 ScaDFX=  1.000000  1.000000  1.000000  1.000000
 FoFCou: FMM=F IPFlag=           0 FMFlag=      100000 FMFlg1=           0
         NFxFlg=           0 DoJE=T BraDBF=F KetDBF=T FulRan=T
         Omega=  0.000000  0.000000  1.000000  0.000000  0.000000 ICntrl=     500 IOpCl=  0
         NMat0=    1 NMatS0=    1 NMatT0=    0 NMatD0=    1 NMtDS0=    0 NMtDT0=    0
         I1Cent=           4 NGrid=           0.
 Petite list used in FoFCou.
 Initial guess orbital symmetries:
       Occupied  (A) (A) (A) (A) (A) (A) (A) (A) (A) (A) (A) (A)
                 (A) (A) (A) (A) (A) (A) (A) (A) (A) (A) (A) (A)
                 (A) (A) (A) (A) (A) (A) (A) (A) (A) (A) (A) (A)
                 (A) (A) (A) (A) (A) (A) (A) (A) (A) (A) (A) (A)
                 (A) (A) (A) (A) (A) (A) (A) (A) (A) (A) (A) (A)
                 (A) (A) (A) (A) (A) (A) (A) (A) (A) (A) (A) (A)
                 (A) (A) (A) (A) (A) (A) (A) (A) (A) (A) (A) (A)
                 (A) (A) (A) (A) (A) (A) (A) (A) (A) (A) (A) (A)
                 (A)
       Virtual   (A) (A) (A) (A) (A) (A) (A) (A) (A) (A) (A) (A)
                 (A) (A) (A) (A) (A) (A) (A) (A) (A) (A) (A) (A)
                 (A) (A) (A) (A) (A) (A) (A) (A) (A) (A) (A) (A)
                 (A) (A) (A) (A) (A) (A) (A) (A) (A) (A) (A) (A)
                 (A) (A) (A) (A) (A) (A) (A) (A) (A) (A) (A) (A)
                 (A) (A) (A) (A) (A) (A) (A) (A) (A) (A) (A) (A)
                 (A) (A) (A) (A) (A) (A) (A) (A) (A) (A) (A) (A)
                 (A) (A) (A) (A) (A) (A) (A) (A) (A) (A) (A) (A)
                 (A) (A) (A) (A) (A) (A) (A) (A) (A) (A) (A) (A)
                 (A) (A) (A) (A) (A) (A) (A) (A) (A) (A) (A) (A)
                 (A) (A) (A) (A) (A) (A) (A) (A) (A) (A) (A) (A)
                 (A) (A) (A) (A) (A) (A) (A) (A) (A) (A) (A) (A)
                 (A) (A) (A) (A) (A) (A) (A) (A) (A) (A) (A) (A)
                 (A) (A) (A) (A) (A) (A) (A) (A) (A) (A) (A) (A)
                 (A) (A) (A) (A) (A) (A) (A) (A) (A) (A) (A) (A)
                 (A) (A) (A) (A) (A) (A) (A) (A) (A) (A) (A) (A)
                 (A) (A) (A) (A) (A) (A) (A) (A) (A) (A) (A) (A)
                 (A) (A) (A) (A) (A) (A) (A) (A) (A) (A) (A) (A)
                 (A) (A) (A) (A) (A) (A) (A) (A) (A) (A) (A) (A)
                 (A) (A) (A) (A) (A) (A) (A) (A) (A) (A) (A) (A)
                 (A) (A) (A) (A) (A) (A) (A) (A) (A) (A) (A) (A)
                 (A) (A) (A) (A) (A) (A) (A) (A) (A) (A) (A) (A)
                 (A) (A) (A) (A) (A) (A) (A) (A) (A) (A) (A) (A)
                 (A) (A) (A) (A) (A) (A) (A) (A) (A) (A) (A) (A)
                 (A) (A) (A) (A) (A) (A) (A) (A) (A) (A) (A) (A)
                 (A) (A) (A) (A) (A) (A) (A) (A) (A) (A) (A) (A)
                 (A) (A) (A) (A) (A) (A) (A) (A) (A) (A) (A) (A)
                 (A) (A) (A) (A) (A) (A) (A) (A) (A) (A) (A) (A)
                 (A) (A) (A) (A) (A) (A) (A) (A) (A) (A) (A) (A)
 The electronic state of the initial guess is 1-A.
 Requested convergence on RMS density matrix=1.00D-08 within 128 cycles.
 Requested convergence on MAX density matrix=1.00D-06.
 Requested convergence on             energy=1.00D-06.
 No special actions if energy rises.
 Integral accuracy reduced to 1.0D-05 until final iterations.
 EnCoef did     4 forward-backward iterations
 EnCoef did   100 forward-backward iterations
 Initial convergence to 1.0D-05 achieved.  Increase integral accuracy.
 SCF Done:  E(RB3LYP) =  -1515.37691547     A.U. after   21 cycles
             Convg  =    0.5254D-08             -V/T =  2.0086

 **********************************************************************

            Population analysis using the SCF density.

 **********************************************************************

 Orbital symmetries:
       Occupied  (A) (A) (A) (A) (A) (A) (A) (A) (A) (A) (A) (A)
                 (A) (A) (A) (A) (A) (A) (A) (A) (A) (A) (A) (A)
                 (A) (A) (A) (A) (A) (A) (A) (A) (A) (A) (A) (A)
                 (A) (A) (A) (A) (A) (A) (A) (A) (A) (A) (A) (A)
                 (A) (A) (A) (A) (A) (A) (A) (A) (A) (A) (A) (A)
                 (A) (A) (A) (A) (A) (A) (A) (A) (A) (A) (A) (A)
                 (A) (A) (A) (A) (A) (A) (A) (A) (A) (A) (A) (A)
                 (A) (A) (A) (A) (A) (A) (A) (A) (A) (A) (A) (A)
                 (A)
       Virtual   (A) (A) (A) (A) (A) (A) (A) (A) (A) (A) (A) (A)
                 (A) (A) (A) (A) (A) (A) (A) (A) (A) (A) (A) (A)
                 (A) (A) (A) (A) (A) (A) (A) (A) (A) (A) (A) (A)
                 (A) (A) (A) (A) (A) (A) (A) (A) (A) (A) (A) (A)
                 (A) (A) (A) (A) (A) (A) (A) (A) (A) (A) (A) (A)
                 (A) (A) (A) (A) (A) (A) (A) (A) (A) (A) (A) (A)
                 (A) (A) (A) (A) (A) (A) (A) (A) (A) (A) (A) (A)
                 (A) (A) (A) (A) (A) (A) (A) (A) (A) (A) (A) (A)
                 (A) (A) (A) (A) (A) (A) (A) (A) (A) (A) (A) (A)
                 (A) (A) (A) (A) (A) (A) (A) (A) (A) (A) (A) (A)
                 (A) (A) (A) (A) (A) (A) (A) (A) (A) (A) (A) (A)
                 (A) (A) (A) (A) (A) (A) (A) (A) (A) (A) (A) (A)
                 (A) (A) (A) (A) (A) (A) (A) (A) (A) (A) (A) (A)
                 (A) (A) (A) (A) (A) (A) (A) (A) (A) (A) (A) (A)
                 (A) (A) (A) (A) (A) (A) (A) (A) (A) (A) (A) (A)
                 (A) (A) (A) (A) (A) (A) (A) (A) (A) (A) (A) (A)
                 (A) (A) (A) (A) (A) (A) (A) (A) (A) (A) (A) (A)
                 (A) (A) (A) (A) (A) (A) (A) (A) (A) (A) (A) (A)
                 (A) (A) (A) (A) (A) (A) (A) (A) (A) (A) (A) (A)
                 (A) (A) (A) (A) (A) (A) (A) (A) (A) (A) (A) (A)
                 (A) (A) (A) (A) (A) (A) (A) (A) (A) (A) (A) (A)
                 (A) (A) (A) (A) (A) (A) (A) (A) (A) (A) (A) (A)
                 (A) (A) (A) (A) (A) (A) (A) (A) (A) (A) (A) (A)
                 (A) (A) (A) (A) (A) (A) (A) (A) (A) (A) (A) (A)
                 (A) (A) (A) (A) (A) (A) (A) (A) (A) (A) (A) (A)
                 (A) (A) (A) (A) (A) (A) (A) (A) (A) (A) (A) (A)
                 (A) (A) (A) (A) (A) (A) (A) (A) (A) (A) (A) (A)
                 (A) (A) (A) (A) (A) (A) (A) (A) (A) (A) (A) (A)
                 (A) (A) (A) (A) (A) (A) (A) (A) (A) (A) (A) (A)
 The electronic state is 1-A.
 Alpha  occ. eigenvalues --  -24.75038 -24.74951 -24.74438 -24.74404 -19.30329
 Alpha  occ. eigenvalues --  -19.30322 -19.29968 -19.29960 -14.69471 -14.69451
 Alpha  occ. eigenvalues --  -14.69393 -14.69323 -14.66221 -14.66106 -10.44865
 Alpha  occ. eigenvalues --  -10.44742 -10.41127 -10.40730 -10.39036 -10.39021
 Alpha  occ. eigenvalues --  -10.38096 -10.37968 -10.36924 -10.36886 -10.36719
 Alpha  occ. eigenvalues --  -10.36597  -6.94245  -1.34816  -1.34814  -1.34355
 Alpha  occ. eigenvalues --   -1.34261  -1.28459  -1.23093  -1.22990  -1.22854
 Alpha  occ. eigenvalues --   -1.17800  -1.17066  -1.08002  -1.07891  -1.01084
 Alpha  occ. eigenvalues --   -1.00967  -0.93448  -0.93445  -0.91332  -0.90960
 Alpha  occ. eigenvalues --   -0.80134  -0.80109  -0.79963  -0.79621  -0.73645
 Alpha  occ. eigenvalues --   -0.73321  -0.69505  -0.69397  -0.69337  -0.69247
 Alpha  occ. eigenvalues --   -0.68129  -0.67750  -0.66052  -0.65943  -0.65395
 Alpha  occ. eigenvalues --   -0.65257  -0.63889  -0.63508  -0.63407  -0.62106
 Alpha  occ. eigenvalues --   -0.61796  -0.61215  -0.60904  -0.60198  -0.60061
 Alpha  occ. eigenvalues --   -0.58177  -0.58154  -0.57995  -0.57863  -0.57667
 Alpha  occ. eigenvalues --   -0.54610  -0.54511  -0.52746  -0.52462  -0.49366
 Alpha  occ. eigenvalues --   -0.49298  -0.47493  -0.47294  -0.47174  -0.44955
 Alpha  occ. eigenvalues --   -0.44671  -0.44397  -0.44222  -0.44172  -0.43264
 Alpha  occ. eigenvalues --   -0.43074  -0.42832  -0.42540  -0.42350  -0.42051
 Alpha  occ. eigenvalues --   -0.41222  -0.40534
 Alpha virt. eigenvalues --   -0.26837  -0.26633  -0.23735  -0.23664  -0.19287
 Alpha virt. eigenvalues --   -0.19279  -0.17564  -0.17519  -0.12261  -0.12242
 Alpha virt. eigenvalues --   -0.06508  -0.06355  -0.00849  -0.00547  -0.00288
 Alpha virt. eigenvalues --   -0.00178   0.00597   0.00898   0.03409   0.03913
 Alpha virt. eigenvalues --    0.04929   0.05454   0.07093   0.07929   0.10395
 Alpha virt. eigenvalues --    0.11802   0.12850   0.13447   0.14340   0.15111
 Alpha virt. eigenvalues --    0.15938   0.16756   0.17386   0.17505   0.17726
 Alpha virt. eigenvalues --    0.19908   0.21252   0.21305   0.23259   0.23514
 Alpha virt. eigenvalues --    0.25758   0.26216   0.33304   0.33649   0.34188
 Alpha virt. eigenvalues --    0.34517   0.34769   0.35218   0.35763   0.36142
 Alpha virt. eigenvalues --    0.36543   0.36783   0.37554   0.38148   0.38501
 Alpha virt. eigenvalues --    0.39830   0.40081   0.40287   0.40414   0.41091
 Alpha virt. eigenvalues --    0.42528   0.42972   0.43144   0.43479   0.44257
 Alpha virt. eigenvalues --    0.44525   0.46635   0.47014   0.47239   0.47838
 Alpha virt. eigenvalues --    0.49069   0.49369   0.50177   0.52609   0.53043
 Alpha virt. eigenvalues --    0.53423   0.54222   0.54503   0.57181   0.57623
 Alpha virt. eigenvalues --    0.58504   0.59621   0.59668   0.60141   0.62999
 Alpha virt. eigenvalues --    0.63872   0.64476   0.65043   0.65644   0.66674
 Alpha virt. eigenvalues --    0.67585   0.67718   0.67856   0.68007   0.68688
 Alpha virt. eigenvalues --    0.69081   0.69531   0.70220   0.72147   0.73723
 Alpha virt. eigenvalues --    0.74247   0.74856   0.76040   0.76375   0.78984
 Alpha virt. eigenvalues --    0.79370   0.81588   0.82541   0.83331   0.83558
 Alpha virt. eigenvalues --    0.83775   0.83950   0.85297   0.85973   0.87099
 Alpha virt. eigenvalues --    0.87874   0.88705   0.89020   0.94340   0.94711
 Alpha virt. eigenvalues --    0.94936   0.95713   0.98099   0.99943   1.00024
 Alpha virt. eigenvalues --    1.00933   1.01120   1.04237   1.04984   1.05395
 Alpha virt. eigenvalues --    1.06194   1.07359   1.08266   1.09267   1.10552
 Alpha virt. eigenvalues --    1.11218   1.11291   1.12486   1.14509   1.14708
 Alpha virt. eigenvalues --    1.15939   1.17329   1.18095   1.18390   1.18633
 Alpha virt. eigenvalues --    1.20587   1.20876   1.21017   1.21528   1.21761
 Alpha virt. eigenvalues --    1.22090   1.22556   1.23147   1.23400   1.23828
 Alpha virt. eigenvalues --    1.25415   1.26438   1.27645   1.28741   1.28948
 Alpha virt. eigenvalues --    1.29540   1.29841   1.30502   1.30714   1.31162
 Alpha virt. eigenvalues --    1.32924   1.35264   1.37110   1.40703   1.42175
 Alpha virt. eigenvalues --    1.43807   1.45349   1.50729   1.50927   1.52909
 Alpha virt. eigenvalues --    1.53174   1.54573   1.55688   1.55866   1.56637
 Alpha virt. eigenvalues --    1.56911   1.57752   1.59039   1.59534   1.60119
 Alpha virt. eigenvalues --    1.61369   1.61722   1.62239   1.63159   1.63442
 Alpha virt. eigenvalues --    1.64181   1.68638   1.69604   1.69859   1.70893
 Alpha virt. eigenvalues --    1.71064   1.71612   1.71947   1.72151   1.72979
 Alpha virt. eigenvalues --    1.74160   1.74372   1.75196   1.75493   1.76017
 Alpha virt. eigenvalues --    1.76072   1.76897   1.78185   1.78429   1.78918
 Alpha virt. eigenvalues --    1.79587   1.80259   1.80663   1.80901   1.81545
 Alpha virt. eigenvalues --    1.82177   1.82819   1.83315   1.84301   1.84792
 Alpha virt. eigenvalues --    1.85450   1.86999   1.88029   1.88298   1.89321
 Alpha virt. eigenvalues --    1.89562   1.90743   1.91132   1.92004   1.92334
 Alpha virt. eigenvalues --    1.92497   1.92679   1.93278   1.94016   1.96484
 Alpha virt. eigenvalues --    1.97242   1.97577   1.98370   1.99692   2.00910
 Alpha virt. eigenvalues --    2.03814   2.09722   2.10504   2.10964   2.11836
 Alpha virt. eigenvalues --    2.13323   2.18698   2.19269   2.22204   2.23622
 Alpha virt. eigenvalues --    2.24773   2.25025   2.25315   2.25921   2.26523
 Alpha virt. eigenvalues --    2.26730   2.27481   2.27973   2.34065   2.34617
 Alpha virt. eigenvalues --    2.35137   2.35873   2.37494   2.37713   2.38610
 Alpha virt. eigenvalues --    2.40744   2.42223   2.42674   2.43658   2.44041
 Alpha virt. eigenvalues --    2.44279   2.44474   2.44700   2.44789   2.45335
 Alpha virt. eigenvalues --    2.46200   2.49109   2.50692   2.51332   2.55603
 Alpha virt. eigenvalues --    2.56298   2.57433   2.58879   2.62709   2.63967
 Alpha virt. eigenvalues --    2.64485   2.64869   2.66033   2.66766   2.67868
 Alpha virt. eigenvalues --    2.70103   2.70902   2.71850   2.76522   2.76593
 Alpha virt. eigenvalues --    2.78280   2.79244   2.87721   2.88568   2.89698
 Alpha virt. eigenvalues --    2.91239   2.93130   2.93718   2.94436   2.97485
 Alpha virt. eigenvalues --    2.97877   3.02752   3.03591   3.04613   3.05776
 Alpha virt. eigenvalues --    3.09911   3.11065   3.11821   3.18746   3.20466
 Alpha virt. eigenvalues --    3.22452   3.23075   3.37416   3.38318   3.39014
 Alpha virt. eigenvalues --    3.39780   3.58039   3.60924   3.61975   3.64568
 Alpha virt. eigenvalues --    3.66217   3.77865   3.79934   3.87991   3.89449
 Alpha virt. eigenvalues --    3.92366   3.94107   3.96949   3.97613   3.98641
 Alpha virt. eigenvalues --    3.99144   4.05341   4.05703   4.25402   4.25811
 Alpha virt. eigenvalues --    4.33254   4.33710   4.34852   4.49604   4.50736
 Alpha virt. eigenvalues --    4.70242   4.71038   5.50590
          Condensed to atoms (all electrons):
              1          2          3          4          5          6
     1  C    4.914239   0.479095  -0.038886  -0.037314  -0.022091   0.462582
     2  C    0.479095   4.900505   0.467654  -0.023774  -0.038106  -0.023226
     3  C   -0.038886   0.467654   4.883041   0.488135  -0.021995  -0.042125
     4  C   -0.037314  -0.023774   0.488135   4.922308   0.487195  -0.070878
     5  C   -0.022091  -0.038106  -0.021995   0.487195   4.919340   0.478911
     6  C    0.462582  -0.023226  -0.042125  -0.070878   0.478911   4.973134
     7  H    0.314923  -0.037657   0.003767   0.000016   0.003381  -0.020597
     8  H    0.003541  -0.041592   0.373100  -0.019989   0.002856   0.000285
     9  H    0.000213   0.003405  -0.028551   0.363971  -0.024048   0.004677
    10  H   -0.028047   0.003314   0.000255   0.004709  -0.026530   0.365596
    11  N   -0.033316   0.135148  -0.045420   0.004492  -0.000257   0.005137
    12  N    0.001355  -0.077160   0.000752  -0.000026  -0.000002  -0.000064
    13  H    0.000000   0.000000   0.000000   0.000000   0.000000   0.000000
    14  C    0.000000   0.000000   0.000000   0.000000   0.000000   0.000000
    15  C    0.000000   0.000000   0.000000   0.000000   0.000000   0.000000
    16  C    0.000000   0.000000   0.000000   0.000000   0.000000   0.000000
    17  C    0.000000   0.000000   0.000000   0.000000   0.000000   0.000000
    18  C    0.000000   0.000000   0.000000   0.000000   0.000000   0.000000
    19  H    0.000000   0.000000   0.000000   0.000000   0.000000   0.000000
    20  C    0.000000   0.000000   0.000000   0.000000   0.000000   0.000000
    21  H    0.000000   0.000000   0.000000   0.000000   0.000000   0.000000
    22  N   -0.000001   0.000000   0.000000   0.000000   0.000000   0.000000
    23  N    0.000002   0.000000   0.000000   0.000000   0.000000   0.000000
    24  N    0.004479  -0.000357   0.004631  -0.039592   0.158659  -0.038520
    25  O    0.001023  -0.000007  -0.000064   0.006870  -0.097829   0.002084
    26  O   -0.000066  -0.000007   0.001071   0.002158  -0.097986   0.006936
    27  F    0.007383   0.007679   0.000121  -0.000008   0.000008  -0.000074
    28  F   -0.000022   0.000008   0.000000   0.000000   0.000000   0.000000
    29  F   -0.019571  -0.000869  -0.000003   0.000000   0.000001   0.000121
    30  F   -0.000152   0.000197   0.000001   0.000000   0.000000  -0.000001
    31  B    0.000751   0.000183   0.000012  -0.000004   0.000000  -0.000008
    32  H    0.000000   0.000000   0.000000   0.000000   0.000000   0.000000
    33  N    0.000000   0.000000   0.000000   0.000000   0.000000   0.000000
    34  O    0.000000   0.000000   0.000000   0.000000   0.000000   0.000000
    35  O    0.000000   0.000000   0.000000   0.000000   0.000000   0.000000
              7          8          9         10         11         12
     1  C    0.314923   0.003541   0.000213  -0.028047  -0.033316   0.001355
     2  C   -0.037657  -0.041592   0.003405   0.003314   0.135148  -0.077160
     3  C    0.003767   0.373100  -0.028551   0.000255  -0.045420   0.000752
     4  C    0.000016  -0.019989   0.363971   0.004709   0.004492  -0.000026
     5  C    0.003381   0.002856  -0.024048  -0.026530  -0.000257  -0.000002
     6  C   -0.020597   0.000285   0.004677   0.365596   0.005137  -0.000064
     7  H    0.501882  -0.000061   0.000007  -0.003870  -0.008997  -0.000063
     8  H   -0.000061   0.515900  -0.003962   0.000011  -0.007291   0.000423
     9  H    0.000007  -0.003962   0.483046  -0.000105  -0.000079   0.000000
    10  H   -0.003870   0.000011  -0.000105   0.484654  -0.000077   0.000000
    11  N   -0.008997  -0.007291  -0.000079  -0.000077   6.240461   0.570562
    12  N   -0.000063   0.000423   0.000000   0.000000   0.570562   6.510253
    13  H    0.000003   0.000000   0.000000   0.000000   0.000007  -0.000025
    14  C    0.000000   0.000000   0.000000   0.000000   0.000000   0.000003
    15  C    0.000000   0.000000   0.000000   0.000000   0.000000   0.000000
    16  C    0.000000   0.000000   0.000000   0.000000   0.000000   0.000000
    17  C    0.000000   0.000000   0.000000   0.000000   0.000000   0.000000
    18  C    0.000000   0.000000   0.000000   0.000000   0.000000   0.000000
    19  H    0.000000   0.000000   0.000000   0.000000   0.000000   0.000000
    20  C    0.000000   0.000000   0.000000   0.000000   0.000000   0.000000
    21  H    0.000000   0.000000   0.000000   0.000000   0.000000   0.000000
    22  N    0.000007   0.000000   0.000000   0.000000   0.000000   0.000000
    23  N   -0.000023   0.000000   0.000000   0.000000   0.000000   0.000000
    24  N   -0.000046  -0.000051  -0.010721  -0.010692  -0.000002   0.000000
    25  O    0.000001   0.000001   0.000204   0.017413   0.000000   0.000000
    26  O    0.000000   0.000005   0.017510   0.000208   0.000000   0.000000
    27  F   -0.001186   0.000009   0.000000   0.000001   0.003104  -0.006173
    28  F    0.000039   0.000000   0.000000   0.000000   0.000000  -0.000011
    29  F    0.054155   0.000000   0.000000  -0.000016   0.000349  -0.000262
    30  F   -0.000095   0.000000   0.000000   0.000000  -0.002352   0.011592
    31  B   -0.001002   0.000005   0.000000   0.000008  -0.002811  -0.003161
    32  H    0.000000   0.000000   0.000000   0.000000   0.000000   0.000000
    33  N    0.000000   0.000000   0.000000   0.000000   0.000000   0.000000
    34  O    0.000000   0.000000   0.000000   0.000000   0.000000   0.000000
    35  O    0.000000   0.000000   0.000000   0.000000   0.000000   0.000000
             13         14         15         16         17         18
     1  C    0.000000   0.000000   0.000000   0.000000   0.000000   0.000000
     2  C    0.000000   0.000000   0.000000   0.000000   0.000000   0.000000
     3  C    0.000000   0.000000   0.000000   0.000000   0.000000   0.000000
     4  C    0.000000   0.000000   0.000000   0.000000   0.000000   0.000000
     5  C    0.000000   0.000000   0.000000   0.000000   0.000000   0.000000
     6  C    0.000000   0.000000   0.000000   0.000000   0.000000   0.000000
     7  H    0.000003   0.000000   0.000000   0.000000   0.000000   0.000000
     8  H    0.000000   0.000000   0.000000   0.000000   0.000000   0.000000
     9  H    0.000000   0.000000   0.000000   0.000000   0.000000   0.000000
    10  H    0.000000   0.000000   0.000000   0.000000   0.000000   0.000000
    11  N    0.000007   0.000000   0.000000   0.000000   0.000000   0.000000
    12  N   -0.000025   0.000003   0.000000   0.000000   0.000000   0.000000
    13  H    0.502510   0.315468  -0.037948  -0.021072   0.003892   0.003459
    14  C    0.315468   4.910099   0.477305   0.464528  -0.042592  -0.021421
    15  C   -0.037948   0.477305   4.907998  -0.017811   0.465038  -0.038216
    16  C   -0.021072   0.464528  -0.017811   4.975941  -0.044671   0.470743
    17  C    0.003892  -0.042592   0.465038  -0.044671   4.878456  -0.022960
    18  C    0.003459  -0.021421  -0.038216   0.470743  -0.022960   4.908115
    19  H   -0.004293  -0.028842   0.003603   0.364713   0.000346  -0.028512
    20  C   -0.000088  -0.041131  -0.019342  -0.061125   0.490862   0.477607
    21  H   -0.000058   0.003246  -0.041315   0.000167   0.374991   0.002959
    22  N   -0.008970  -0.031681   0.132366   0.004739  -0.045775   0.000090
    23  N   -0.000080   0.001284  -0.076733  -0.000068   0.000823   0.000001
    24  N    0.000000   0.000000   0.000000   0.000000   0.000000   0.000000
    25  O    0.000000   0.000000   0.000000   0.000000   0.000000   0.000000
    26  O    0.000000   0.000000   0.000000   0.000000   0.000000   0.000000
    27  F    0.000036  -0.000020   0.000008   0.000000   0.000000   0.000000
    28  F   -0.001270   0.007686   0.007079  -0.000044   0.000118   0.000004
    29  F   -0.000129  -0.000141   0.000187  -0.000001   0.000001   0.000000
    30  F    0.053960  -0.019418  -0.000718   0.000110  -0.000002   0.000001
    31  B   -0.000852   0.000655   0.000181   0.000002   0.000011  -0.000002
    32  H    0.000007   0.000341   0.004036   0.005499  -0.030204  -0.027766
    33  N   -0.000035   0.004330  -0.000407  -0.040695   0.004685   0.149239
    34  O    0.000000  -0.000044  -0.000008   0.006079   0.000922  -0.090936
    35  O    0.000001   0.000773  -0.000008   0.004813  -0.000044  -0.091742
             19         20         21         22         23         24
     1  C    0.000000   0.000000   0.000000  -0.000001   0.000002   0.004479
     2  C    0.000000   0.000000   0.000000   0.000000   0.000000  -0.000357
     3  C    0.000000   0.000000   0.000000   0.000000   0.000000   0.004631
     4  C    0.000000   0.000000   0.000000   0.000000   0.000000  -0.039592
     5  C    0.000000   0.000000   0.000000   0.000000   0.000000   0.158659
     6  C    0.000000   0.000000   0.000000   0.000000   0.000000  -0.038520
     7  H    0.000000   0.000000   0.000000   0.000007  -0.000023  -0.000046
     8  H    0.000000   0.000000   0.000000   0.000000   0.000000  -0.000051
     9  H    0.000000   0.000000   0.000000   0.000000   0.000000  -0.010721
    10  H    0.000000   0.000000   0.000000   0.000000   0.000000  -0.010692
    11  N    0.000000   0.000000   0.000000   0.000000   0.000000  -0.000002
    12  N    0.000000   0.000000   0.000000   0.000000   0.000000   0.000000
    13  H   -0.004293  -0.000088  -0.000058  -0.008970  -0.000080   0.000000
    14  C   -0.028842  -0.041131   0.003246  -0.031681   0.001284   0.000000
    15  C    0.003603  -0.019342  -0.041315   0.132366  -0.076733   0.000000
    16  C    0.364713  -0.061125   0.000167   0.004739  -0.000068   0.000000
    17  C    0.000346   0.490862   0.374991  -0.045775   0.000823   0.000000
    18  C   -0.028512   0.477607   0.002959   0.000090   0.000001   0.000000
    19  H    0.493667   0.005278   0.000011  -0.000085   0.000000   0.000000
    20  C    0.005278   4.929307  -0.019884   0.003896  -0.000045   0.000000
    21  H    0.000011  -0.019884   0.511269  -0.006595   0.000367   0.000000
    22  N   -0.000085   0.003896  -0.006595   6.237512   0.571186   0.000000
    23  N    0.000000  -0.000045   0.000367   0.571186   6.508206   0.000000
    24  N    0.000000   0.000000   0.000000   0.000000   0.000000   5.944300
    25  O    0.000000   0.000000   0.000000   0.000000   0.000000   0.288576
    26  O    0.000000   0.000000   0.000000   0.000000   0.000000   0.286987
    27  F    0.000000   0.000000   0.000000   0.000000  -0.000011   0.000000
    28  F    0.000002  -0.000004   0.000007   0.003420  -0.006008   0.000000
    29  F    0.000000   0.000000   0.000000  -0.002380   0.011736   0.000000
    30  F   -0.000018   0.000000   0.000000   0.000271  -0.000234   0.000000
    31  B    0.000010  -0.000002   0.000005  -0.002726  -0.003059   0.000000
    32  H   -0.000122   0.364771  -0.004913  -0.000110   0.000000   0.000000
    33  N   -0.009014  -0.040217  -0.000041  -0.000001   0.000000   0.000000
    34  O    0.000156   0.002654   0.000003   0.000000   0.000000   0.000000
    35  O    0.014346   0.006390   0.000000   0.000000   0.000000   0.000000
             25         26         27         28         29         30
     1  C    0.001023  -0.000066   0.007383  -0.000022  -0.019571  -0.000152
     2  C   -0.000007  -0.000007   0.007679   0.000008  -0.000869   0.000197
     3  C   -0.000064   0.001071   0.000121   0.000000  -0.000003   0.000001
     4  C    0.006870   0.002158  -0.000008   0.000000   0.000000   0.000000
     5  C   -0.097829  -0.097986   0.000008   0.000000   0.000001   0.000000
     6  C    0.002084   0.006936  -0.000074   0.000000   0.000121  -0.000001
     7  H    0.000001   0.000000  -0.001186   0.000039   0.054155  -0.000095
     8  H    0.000001   0.000005   0.000009   0.000000   0.000000   0.000000
     9  H    0.000204   0.017510   0.000000   0.000000   0.000000   0.000000
    10  H    0.017413   0.000208   0.000001   0.000000  -0.000016   0.000000
    11  N    0.000000   0.000000   0.003104   0.000000   0.000349  -0.002352
    12  N    0.000000   0.000000  -0.006173  -0.000011  -0.000262   0.011592
    13  H    0.000000   0.000000   0.000036  -0.001270  -0.000129   0.053960
    14  C    0.000000   0.000000  -0.000020   0.007686  -0.000141  -0.019418
    15  C    0.000000   0.000000   0.000008   0.007079   0.000187  -0.000718
    16  C    0.000000   0.000000   0.000000  -0.000044  -0.000001   0.000110
    17  C    0.000000   0.000000   0.000000   0.000118   0.000001  -0.000002
    18  C    0.000000   0.000000   0.000000   0.000004   0.000000   0.000001
    19  H    0.000000   0.000000   0.000000   0.000002   0.000000  -0.000018
    20  C    0.000000   0.000000   0.000000  -0.000004   0.000000   0.000000
    21  H    0.000000   0.000000   0.000000   0.000007   0.000000   0.000000
    22  N    0.000000   0.000000   0.000000   0.003420  -0.002380   0.000271
    23  N    0.000000   0.000000  -0.000011  -0.006008   0.011736  -0.000234
    24  N    0.288576   0.286987   0.000000   0.000000   0.000000   0.000000
    25  O    8.233936  -0.099373   0.000000   0.000000   0.000000   0.000000
    26  O   -0.099373   8.235900   0.000000   0.000000   0.000000   0.000000
    27  F    0.000000   0.000000   9.091655  -0.019915  -0.022539  -0.021864
    28  F    0.000000   0.000000  -0.019915   9.091827  -0.021882  -0.022559
    29  F    0.000000   0.000000  -0.022539  -0.021882   9.089385  -0.024685
    30  F    0.000000   0.000000  -0.021864  -0.022559  -0.024685   9.088426
    31  B    0.000000   0.000000   0.325527   0.325280   0.293460   0.294114
    32  H    0.000000   0.000000   0.000000   0.000000   0.000000   0.000000
    33  N    0.000000   0.000000   0.000000   0.000000   0.000000   0.000000
    34  O    0.000000   0.000000   0.000000   0.000000   0.000000   0.000000
    35  O    0.000000   0.000000   0.000000   0.000000   0.000000   0.000000
             31         32         33         34         35
     1  C    0.000751   0.000000   0.000000   0.000000   0.000000
     2  C    0.000183   0.000000   0.000000   0.000000   0.000000
     3  C    0.000012   0.000000   0.000000   0.000000   0.000000
     4  C   -0.000004   0.000000   0.000000   0.000000   0.000000
     5  C    0.000000   0.000000   0.000000   0.000000   0.000000
     6  C   -0.000008   0.000000   0.000000   0.000000   0.000000
     7  H   -0.001002   0.000000   0.000000   0.000000   0.000000
     8  H    0.000005   0.000000   0.000000   0.000000   0.000000
     9  H    0.000000   0.000000   0.000000   0.000000   0.000000
    10  H    0.000008   0.000000   0.000000   0.000000   0.000000
    11  N   -0.002811   0.000000   0.000000   0.000000   0.000000
    12  N   -0.003161   0.000000   0.000000   0.000000   0.000000
    13  H   -0.000852   0.000007  -0.000035   0.000000   0.000001
    14  C    0.000655   0.000341   0.004330  -0.000044   0.000773
    15  C    0.000181   0.004036  -0.000407  -0.000008  -0.000008
    16  C    0.000002   0.005499  -0.040695   0.006079   0.004813
    17  C    0.000011  -0.030204   0.004685   0.000922  -0.000044
    18  C   -0.000002  -0.027766   0.149239  -0.090936  -0.091742
    19  H    0.000010  -0.000122  -0.009014   0.000156   0.014346
    20  C   -0.000002   0.364771  -0.040217   0.002654   0.006390
    21  H    0.000005  -0.004913  -0.000041   0.000003   0.000000
    22  N   -0.002726  -0.000110  -0.000001   0.000000   0.000000
    23  N   -0.003059   0.000000   0.000000   0.000000   0.000000
    24  N    0.000000   0.000000   0.000000   0.000000   0.000000
    25  O    0.000000   0.000000   0.000000   0.000000   0.000000
    26  O    0.000000   0.000000   0.000000   0.000000   0.000000
    27  F    0.325527   0.000000   0.000000   0.000000   0.000000
    28  F    0.325280   0.000000   0.000000   0.000000   0.000000
    29  F    0.293460   0.000000   0.000000   0.000000   0.000000
    30  F    0.294114   0.000000   0.000000   0.000000   0.000000
    31  B    3.083107   0.000000   0.000000   0.000000   0.000000
    32  H    0.000000   0.495061  -0.010995   0.017933   0.000229
    33  N    0.000000  -0.010995   5.973557   0.291019   0.294190
    34  O    0.000000   0.017933   0.291019   8.233800  -0.111941
    35  O    0.000000   0.000229   0.294190  -0.111941   8.229297
 Mulliken atomic charges:
              1
     1  C   -0.010122
     2  C    0.245567
     3  C   -0.045498
     4  C   -0.088269
     5  C    0.278493
     6  C   -0.103971
     7  H    0.195416
     8  H    0.176810
     9  H    0.194433
    10  H    0.193169
    11  N    0.141342
    12  N   -0.007994
    13  H    0.195477
    14  C   -0.000427
    15  C    0.234704
    16  C   -0.111846
    17  C   -0.033897
    18  C    0.309335
    19  H    0.188754
    20  C   -0.098927
    21  H    0.179779
    22  N    0.144836
    23  N   -0.007344
    24  N    0.412349
    25  O   -0.352835
    26  O   -0.353342
    27  F   -0.363743
    28  F   -0.363754
    29  F   -0.356917
    30  F   -0.356575
    31  B    0.690318
    32  H    0.186233
    33  N    0.384385
    34  O   -0.349637
    35  O   -0.346304
 Sum of Mulliken atomic charges =   1.00000
 Mulliken charges with hydrogens summed into heavy atoms:
              1
     1  C    0.185294
     2  C    0.245567
     3  C    0.131313
     4  C    0.106165
     5  C    0.278493
     6  C    0.089198
    11  N    0.141342
    12  N   -0.007994
    14  C    0.195050
    15  C    0.234704
    16  C    0.076908
    17  C    0.145882
    18  C    0.309335
    20  C    0.087306
    22  N    0.144836
    23  N   -0.007344
    24  N    0.412349
    25  O   -0.352835
    26  O   -0.353342
    27  F   -0.363743
    28  F   -0.363754
    29  F   -0.356917
    30  F   -0.356575
    31  B    0.690318
    33  N    0.384385
    34  O   -0.349637
    35  O   -0.346304
 Sum of Mulliken charges with hydrogens summed into heavy atoms =   1.00000
 Electronic spatial extent (au):  <R**2>=          18100.9104
 Charge=              1.0000 electrons
 Dipole moment (field-independent basis, Debye):
    X=             -0.3688    Y=              0.1110    Z=             -4.3213  Tot=              4.3384
 Quadrupole moment (field-independent basis, Debye-Ang):
   XX=            -74.3642   YY=           -113.3964   ZZ=           -143.7296
   XY=             53.5486   XZ=             -0.4183   YZ=             -0.0106
 Traceless Quadrupole moment (field-independent basis, Debye-Ang):
   XX=             36.1325   YY=             -2.8997   ZZ=            -33.2329
   XY=             53.5486   XZ=             -0.4183   YZ=             -0.0106
 Octapole moment (field-independent basis, Debye-Ang**2):
  XXX=            -37.9153  YYY=              0.6425  ZZZ=              6.3873  XYY=             -0.3546
  XXY=             -1.8106  XXZ=            -66.4859  XZZ=              0.0473  YZZ=              0.0344
  YYZ=            -11.3148  XYZ=             -2.7271
 Hexadecapole moment (field-independent basis, Debye-Ang**3):
 XXXX=         -22231.1892 YYYY=          -1557.9677 ZZZZ=           -335.9565 XXXY=           1638.2995
 XXXZ=            -28.5738 YYYX=            319.2618 YYYZ=             -0.3474 ZZZX=              1.1755
 ZZZY=              0.2259 XXYY=          -3392.5754 XXZZ=          -3429.9305 YYZZ=           -347.6765
 XXYZ=             -1.6026 YYXZ=             -1.3882 ZZXY=            -43.8481
 N-N= 2.281485208235D+03 E-N=-8.093082854827D+03  KE= 1.502477951892D+03
 Calling FoFJK, ICntrl=      2127 FMM=F ISym2X=0 I1Cent= 0 IOpClX= 0 NMat=1 NMatS=1 NMatT=0.
 ***** Axes restored to original set *****
 -------------------------------------------------------------------
 Center     Atomic                   Forces (Hartrees/Bohr)
 Number     Number              X              Y              Z
 -------------------------------------------------------------------
      1        6           0.000056005    0.000052719    0.000033351
      2        6           0.000169643   -0.000009480   -0.000004976
      3        6          -0.000075727    0.000013765   -0.000026231
      4        6           0.000040935   -0.000102394   -0.000000013
      5        6           0.000021625    0.000037422    0.000015493
      6        6          -0.000071187   -0.000029927    0.000010146
      7        1          -0.000039704    0.000018297    0.000013336
      8        1          -0.000009832    0.000024461    0.000003739
      9        1           0.000007552    0.000037863    0.000011598
     10        1           0.000039954    0.000052871   -0.000002079
     11        7          -0.000173308    0.000204718   -0.000038297
     12        7           0.000125784   -0.000110864    0.000027949
     13        1          -0.000492972    0.000762278    0.000368301
     14        6          -0.002749490   -0.004321219   -0.000260463
     15        6           0.002398130   -0.000143832   -0.000373963
     16        6          -0.003249630    0.011860269    0.002361558
     17        6           0.000816810    0.007616989    0.000750345
     18        6           0.012516313   -0.010153470   -0.004041593
     19        1          -0.001390882    0.000585679    0.000363749
     20        6          -0.011134663   -0.000798143    0.002287049
     21        1           0.002212693   -0.000051074   -0.000421401
     22        7           0.002764878    0.000033237   -0.000542854
     23        7          -0.000479914    0.000189456    0.000124377
     24        7          -0.000041866    0.000138085   -0.000006352
     25        8          -0.000047506   -0.000139285   -0.000022020
     26        8           0.000050475   -0.000017376    0.000021507
     27        9          -0.000144243   -0.000280034   -0.000124073
     28        9          -0.000027451   -0.000147813   -0.000060347
     29        9          -0.000120544   -0.000309471   -0.000136693
     30        9          -0.000004940   -0.000125023   -0.000021427
     31        5           0.000106142    0.000521566    0.000203181
     32        1          -0.010454455   -0.002475715    0.001866188
     33        7          -0.010377998    0.010857100    0.003697121
     34        8           0.003548349   -0.015133841   -0.002838718
     35        8           0.016211025    0.001342186   -0.003237489
 -------------------------------------------------------------------
 Cartesian Forces:  Max     0.016211025 RMS     0.003847837

 GradGradGradGradGradGradGradGradGradGradGradGradGradGradGradGradGradGrad
 Berny optimization.
 Search for a local minimum.
 Step number   1 out of a maximum of  210
 All quantities printed in internal units (Hartrees-Bohrs-Radians)
 Second derivative matrix not updated -- first step.
 ITU=  0
     Eigenvalues ---    0.00000   0.00000   0.00000   0.00000   0.00000
     Eigenvalues ---    0.00000   0.00000   0.00000   0.00000   0.00000
     Eigenvalues ---    0.00000   0.00000   0.00249   0.00259   0.00365
     Eigenvalues ---    0.00369   0.01307   0.01321   0.01542   0.01570
     Eigenvalues ---    0.01576   0.01664   0.02337   0.02358   0.03431
     Eigenvalues ---    0.03492   0.04497   0.04595   0.06356   0.06469
     Eigenvalues ---    0.06897   0.06950   0.07005   0.07101   0.07267
     Eigenvalues ---    0.07286   0.08988   0.09117   0.10501   0.10620
     Eigenvalues ---    0.10761   0.10964   0.12085   0.12125   0.12567
     Eigenvalues ---    0.12987   0.13219   0.13259   0.13385   0.13785
     Eigenvalues ---    0.13790   0.15185   0.15295   0.21453   0.21560
     Eigenvalues ---    0.26865   0.27372   0.27556   0.27650   0.30411
     Eigenvalues ---    0.30455   0.37062   0.37156   0.42856   0.42958
     Eigenvalues ---    0.43415   0.44058   0.44343   0.47996   0.48854
     Eigenvalues ---    0.63484   0.63808   0.69172   0.69361   0.96533
     Eigenvalues ---    0.97354   1.08715   1.09254   1.10135   1.15073
     Eigenvalues ---    1.18171   1.19429   1.22282   1.26502   1.27220
     Eigenvalues ---    1.44743   1.44941   1.53494   1.55627   1.58745
     Eigenvalues ---    1.59683   1.67533   1.71614   2.54563   2.58354
     Eigenvalues ---    3.61318   3.61425  21.83695  25.68915
 RFO step:  Lambda=-7.00600147D-03 EMin=-3.83423613D-17
 Linear search not attempted -- first point.
 TrRot=  0.004105 -0.001608 -0.001302  2.242453  0.000179 -2.242471
 Variable       Old X    -DE/DX   Delta X   Delta X   Delta X     New X
                                 (Linear)    (Quad)   (Total)
    X1        6.60270   0.00006   0.00000  -0.00356   0.00061   6.60331
    Y1       -0.32012   0.00005   0.00000   0.00477   0.00295  -0.31717
    Z1       -0.69863   0.00003   0.00000   0.00141   0.00089  -0.69774
    X2        7.10348   0.00017   0.00000  -0.00257   0.00163   7.10511
    Y2        2.27599  -0.00001   0.00000   0.00461   0.00281   2.27880
    Z2       -0.45146   0.00000   0.00000   0.00077  -0.00006  -0.45152
    X3        9.49342  -0.00008   0.00000  -0.00228   0.00187   9.49529
    Y3        3.30608   0.00001   0.00000   0.00379   0.00203   3.30810
    Z3        0.09864  -0.00003   0.00000   0.00034  -0.00037   0.09828
    X4       11.48216   0.00004   0.00000  -0.00273   0.00135  11.48352
    Y4        1.63253  -0.00010   0.00000   0.00303   0.00128   1.63381
    Z4        0.42387   0.00000   0.00000   0.00037   0.00012   0.42399
    X5       11.00954   0.00002   0.00000  -0.00372   0.00034  11.00989
    Y5       -0.94978   0.00004   0.00000   0.00328   0.00150  -0.94828
    Z5        0.17461   0.00002   0.00000   0.00044   0.00050   0.17511
    X6        8.63756  -0.00007   0.00000  -0.00412   0.00000   8.63756
    Y6       -1.94887  -0.00003   0.00000   0.00407   0.00225  -1.94662
    Z6       -0.37832   0.00001   0.00000   0.00089   0.00083  -0.37750
    X7        4.70598  -0.00004   0.00000  -0.00399   0.00022   4.70621
    Y7       -0.99230   0.00002   0.00000   0.00533   0.00349  -0.98881
    Z7       -1.09661   0.00001   0.00000   0.00208   0.00144  -1.09517
    X8        9.75968  -0.00001   0.00000  -0.00174   0.00243   9.76211
    Y8        5.32997   0.00002   0.00000   0.00374   0.00199   5.33196
    Z8        0.26759   0.00000   0.00000   0.00027  -0.00069   0.26689
    X9       13.37321   0.00001   0.00000  -0.00251   0.00154  13.37475
    Y9        2.28128   0.00004   0.00000   0.00264   0.00091   2.28219
    Z9        0.85983   0.00001   0.00000   0.00029   0.00016   0.85998
   X10        8.40815   0.00004   0.00000  -0.00411  -0.00002   8.40813
   Y10       -3.97617   0.00005   0.00000   0.00419   0.00236  -3.97382
   Z10       -0.53819   0.00000   0.00000   0.00065   0.00084  -0.53735
   X11        5.14176  -0.00017   0.00000  -0.00254   0.00172   5.14348
   Y11        3.97296   0.00020   0.00000   0.00504   0.00322   3.97618
   Z11       -0.81523  -0.00004   0.00000   0.00115  -0.00014  -0.81537
   X12        3.62506   0.00013   0.00000  -0.00254   0.00179   3.62685
   Y12        5.38629  -0.00011   0.00000   0.00501   0.00317   5.38946
   Z12       -1.15708   0.00003   0.00000   0.00165   0.00000  -1.15708
   X13       -4.53100  -0.00049   0.00000  -0.02903  -0.02480  -4.55580
   Y13        2.57626   0.00076   0.00000   0.02994   0.02832   2.60458
   Z13       -0.72830   0.00037   0.00000   0.01642   0.01425  -0.71406
   X14       -6.42110  -0.00275   0.00000  -0.02601  -0.02182  -6.44292
   Y14        1.82037  -0.00432   0.00000   0.02132   0.01977   1.84014
   Z14       -0.47224  -0.00026   0.00000   0.01088   0.00860  -0.46364
   X15       -6.88238   0.00240   0.00000  -0.02222  -0.01805  -6.90043
   Y15       -0.78650  -0.00014   0.00000   0.02360   0.02201  -0.76449
   Z15       -0.73359  -0.00037   0.00000   0.01107   0.00911  -0.72448
   X16       -8.47920  -0.00325   0.00000  -0.02435  -0.02020  -8.49941
   Y16        3.33272   0.01186   0.00000   0.02009   0.01866   3.35138
   Z16        0.14513   0.00236   0.00000   0.00962   0.00690   0.15203
   X17       -9.25474   0.00082   0.00000  -0.02890  -0.02478  -9.27953
   Y17       -1.92695   0.00762   0.00000   0.01714   0.01564  -1.91131
   Z17       -0.40931   0.00075   0.00000   0.01072   0.00865  -0.40066
   X18      -10.87689   0.01252   0.00000   0.00624   0.01033 -10.86656
   Y18        2.28184  -0.01015   0.00000  -0.03719  -0.03853   2.24331
   Z18        0.49927  -0.00404   0.00000  -0.00475  -0.00758   0.49169
   X19       -8.20897  -0.00139   0.00000  -0.06231  -0.05816  -8.26713
   Y19        5.35095   0.00059   0.00000   0.02510   0.02370   5.37465
   Z19        0.36680   0.00036   0.00000   0.01821   0.01523   0.38203
   X20      -11.21704  -0.01113   0.00000  -0.07173  -0.06766 -11.28469
   Y20       -0.31861  -0.00080   0.00000  -0.02648  -0.02785  -0.34646
   Z20        0.21543   0.00229   0.00000   0.01425   0.01174   0.22716
   X21       -9.57505   0.00221   0.00000   0.02198   0.02608  -9.54898
   Y21       -3.93819  -0.00005   0.00000   0.01061   0.00909  -3.92910
   Z21       -0.61870  -0.00042   0.00000  -0.00003  -0.00184  -0.62054
   X22       -4.90195   0.00276   0.00000  -0.00895  -0.00473  -4.90668
   Y22       -2.36499   0.00003   0.00000   0.03329   0.03158  -2.33341
   Z22       -1.39443  -0.00054   0.00000   0.01092   0.00940  -1.38503
   X23       -3.36390  -0.00048   0.00000  -0.00393   0.00033  -3.36357
   Y23       -3.67136   0.00019   0.00000   0.04067   0.03885  -3.63251
   Z23       -1.97987   0.00012   0.00000   0.00835   0.00718  -1.97269
   X24       13.16345  -0.00004   0.00000  -0.00473  -0.00073  13.16272
   Y24       -2.73065   0.00014   0.00000   0.00207   0.00030  -2.73035
   Z24        0.51930  -0.00001   0.00000  -0.00025   0.00029   0.51959
   X25       12.69839  -0.00005   0.00000  -0.00618  -0.00219  12.69620
   Y25       -4.98396  -0.00014   0.00000   0.00233   0.00053  -4.98343
   Z25        0.27930  -0.00002   0.00000  -0.00134  -0.00052   0.27878
   X26       15.21967   0.00005   0.00000  -0.00411  -0.00015  15.21951
   Y26       -1.78976  -0.00002   0.00000   0.00049  -0.00125  -1.79101
   Z26        1.01138   0.00002   0.00000   0.00041   0.00106   1.01244
   X27        2.15996  -0.00014   0.00000  -0.00583  -0.00193   2.15803
   Y27        1.29919  -0.00028   0.00000  -0.01840  -0.01976   1.27943
   Z27        2.01501  -0.00012   0.00000  -0.00431  -0.00556   2.00946
   X28       -1.95190  -0.00003   0.00000  -0.01169  -0.00780  -1.95970
   Y28       -0.18141  -0.00015   0.00000  -0.00130  -0.00261  -0.18403
   Z28        1.88047  -0.00006   0.00000  -0.00065  -0.00214   1.87832
   X29        0.83242  -0.00012   0.00000  -0.02141  -0.01719   0.81524
   Y29       -1.17428  -0.00031   0.00000  -0.00932  -0.01113  -1.18540
   Z29       -1.29371  -0.00014   0.00000  -0.00470  -0.00574  -1.29945
   X30       -0.64194   0.00000   0.00000  -0.00373   0.00052  -0.64142
   Y30        2.89034  -0.00013   0.00000  -0.00293  -0.00465   2.88569
   Z30       -0.88874  -0.00002   0.00000   0.00065  -0.00113  -0.88986
   X31        0.09959   0.00011   0.00000  -0.01034  -0.00627   0.09332
   Y31        0.70392   0.00052   0.00000  -0.00671  -0.00826   0.69567
   Z31        0.47829   0.00020   0.00000  -0.00210  -0.00349   0.47480
   X32      -13.06330  -0.01045   0.00000  -0.10602  -0.10199 -13.16529
   Y32       -1.09547  -0.00248   0.00000  -0.01147  -0.01277  -1.10824
   Z32        0.49133   0.00187   0.00000   0.02448   0.02186   0.51319
   X33      -13.09977  -0.01038   0.00000   0.05025   0.05429 -13.04548
   Y33        3.87186   0.01086   0.00000  -0.01131  -0.01252   3.85934
   Z33        1.17654   0.00370   0.00000  -0.01079  -0.01409   1.16245
   X34      -15.14804   0.00355   0.00000   0.07435   0.07835 -15.06970
   Y34        2.83535  -0.01513   0.00000  -0.07123  -0.07237   2.76298
   Z34        1.46019  -0.00284   0.00000  -0.02449  -0.02786   1.43233
   X35      -12.78797   0.01621   0.00000   0.19102   0.19508 -12.59289
   Y35        6.15049   0.00134   0.00000  -0.02352  -0.02470   6.12579
   Z35        1.42221  -0.00324   0.00000  -0.04425  -0.04782   1.37439
         Item               Value     Threshold  Converged?
 Maximum Force            0.016211     0.000450     NO 
 RMS     Force            0.003848     0.000300     NO 
 Maximum Displacement     0.195077     0.001800     NO 
 RMS     Displacement     0.029047     0.001200     NO 
 Predicted change in Energy=-3.816150D-03
 GradGradGradGradGradGradGradGradGradGradGradGradGradGradGradGradGradGrad

                          Input orientation:                          
 ---------------------------------------------------------------------
 Center     Atomic      Atomic             Coordinates (Angstroms)
 Number     Number       Type             X           Y           Z
 ---------------------------------------------------------------------
      1          6           0        3.494324   -0.167841   -0.369228
      2          6           0        3.759863    1.205887   -0.238932
      3          6           0        5.024689    1.750572    0.052007
      4          6           0        6.076817    0.864577    0.224364
      5          6           0        5.826182   -0.501808    0.092665
      6          6           0        4.570798   -1.030107   -0.199763
      7          1           0        2.490418   -0.523254   -0.579539
      8          1           0        5.165885    2.821553    0.141233
      9          1           0        7.077614    1.207682    0.455084
     10          1           0        4.449389   -2.102853   -0.284354
     11          7           0        2.721812    2.104106   -0.431473
     12          7           0        1.919245    2.851978   -0.612302
     13          1           0       -2.410824    1.378285   -0.377862
     14          6           0       -3.409447    0.973760   -0.245350
     15          6           0       -3.651552   -0.404551   -0.383380
     16          6           0       -4.497692    1.773473    0.080453
     17          6           0       -4.910515   -1.011421   -0.212021
     18          6           0       -5.750334    1.187109    0.260189
     19          1           0       -4.374775    2.844141    0.202160
     20          6           0       -5.971602   -0.183336    0.120211
     21          1           0       -5.053100   -2.079191   -0.328375
     22          7           0       -2.596503   -1.234790   -0.732928
     23          7           0       -1.779925   -1.922243   -1.043900
     24          7           0        6.965413   -1.444841    0.274956
     25          8           0        6.718540   -2.637117    0.147523
     26          8           0        8.053820   -0.947762    0.535761
     27          9           0        1.141979    0.677044    1.063360
     28          9           0       -1.037029   -0.097382    0.993967
     29          9           0        0.431406   -0.627288   -0.687639
     30          9           0       -0.339422    1.527039   -0.470896
     31          5           0        0.049380    0.368131    0.251252
     32          1           0       -6.966772   -0.586455    0.271568
     33          7           0       -6.903370    2.042274    0.615142
     34          8           0       -7.974541    1.462105    0.757955
     35          8           0       -6.663870    3.241628    0.727293
 ---------------------------------------------------------------------
                    Distance matrix (angstroms):
                    1          2          3          4          5
     1  C    0.000000
     2  C    1.405210   0.000000
     3  C    2.489933   1.407520   0.000000
     4  C    2.843855   2.387344   1.386242   0.000000
     5  C    2.400508   2.701083   2.391079   1.395410   0.000000
     6  C    1.389610   2.378827   2.828706   2.457194   1.393055
     7  H    1.085530   2.171965   3.462898   3.928689   3.402887
     8  H    3.462826   2.175271   1.083927   2.160199   3.388668
     9  H    3.925751   3.389563   2.161412   1.082843   2.149369
    10  H    2.159543   3.380129   3.910626   3.422420   2.145005
    11  N    2.400499   1.386153   2.379492   3.636291   4.086884
    12  N    3.414567   2.497378   3.361277   4.683501   5.197020
    13  H    6.104208   6.174658   7.457227   8.524472   8.461939
    14  C    6.998617   7.173069   8.475052   9.498513   9.358867
    15  C    7.149809   7.585739   8.950490   9.829608   9.490179
    16  C    8.236700   8.283198   9.522451  10.614473  10.571632
    17  C    8.448529   8.949448  10.315357  11.154876  10.753101
    18  C    9.364601   9.523304  10.791754  11.831603  11.700266
    19  H    8.445190   8.309679   9.464056  10.637431  10.736241
    20  C    9.478584   9.836683  11.165262  12.094353  11.802114
    21  H    8.758618   9.405745  10.787660  11.525899  11.001099
    22  N    6.194258   6.826736   8.222596   8.974978   8.494733
    23  N    5.599179   6.412676   7.809824   8.432275   7.820631
    24  N    3.754219   4.191180   3.745234   2.474989   1.490097
    25  O    4.093889   4.865367   4.704261   3.560839   2.314921
    26  O    4.713415   4.865842   4.085420   2.700015   2.314645
    27  F    2.880914   2.971356   4.153400   5.009163   4.926834
    28  F    4.732485   5.121398   6.406765   7.219727   6.933942
    29  F    3.113510   3.826289   5.224896   5.909998   5.452360
    30  F    4.192919   4.118384   5.394171   6.487709   6.515251
    31  B    3.541172   3.835335   5.167643   6.047906   5.844089
    32  H   10.489060  10.887323  12.219044  13.124136  12.794485
    33  N   10.675469  10.730029  11.944907  13.039361  12.991798
    34  O   11.638820  11.779459  13.021580  14.074176  13.955626
    35  O   10.771060  10.664522  11.802613  12.970290  13.054403
                    6          7          8          9         10
     6  C    0.000000
     7  H    2.174651   0.000000
     8  H    3.912248   4.343429   0.000000
     9  H    3.423544   5.010884   2.521466   0.000000
    10  H    1.082904   2.533739   4.994423   4.291151   0.000000
    11  N    3.646331   2.641684   2.610788   4.534597   4.550239
    12  N    4.719269   3.423377   3.333079   5.518315   5.573108
    13  H    7.387497   5.261055   7.730395   9.526456   7.693477
    14  C    8.228114   6.095993   8.780666  10.513029   8.439690
    15  C    8.248155   6.146247   9.403731  10.881972   8.277637
    16  C    9.496109   7.385406   9.720437  11.595179   9.757523
    17  C    9.481338   7.426114  10.786580  12.210024   9.423601
    18  C   10.566616   8.458161  11.038542  12.829446  10.731018
    19  H    9.756772   7.686434   9.540881  11.571481  10.127947
    20  C   10.581191   8.497704  11.535746  13.127419  10.604022
    21  H    9.681763   7.706405  11.343081  12.592520   9.502621
    22  N    7.190018   5.138733   8.801861  10.048164   7.113322
    23  N    6.468396   4.517591   8.494258   9.513116   6.278048
    24  N    2.476196   4.648125   4.632310   2.660998   2.660110
    25  O    2.704790   4.782682   5.675196   3.873759   2.370865
    26  O    3.560789   5.689951   4.764824   2.367578   3.872821
    27  F    4.033192   2.440926   4.651995   5.990271   4.525828
    28  F    5.808845   3.885893   6.908218   8.236566   5.979699
    29  F    4.187464   2.064471   5.915811   6.988921   4.299317
    30  F    5.542812   3.496213   5.688487   7.481434   6.011958
    31  B    4.754124   2.728268   5.675386   7.081134   5.074713
    32  H   11.555713   9.495621  12.602892  14.159710  11.529842
    33  N   11.906306   9.810833  12.103669  14.006787  12.119254
    34  O   12.826296  10.735264  13.224948  15.057352  12.967242
    35  O   12.055078   9.984144  11.851710  13.893863  12.373012
                   11         12         13         14         15
    11  N    0.000000
    12  N    1.111812   0.000000
    13  H    5.183980   4.579982   0.000000
    14  C    6.237360   5.661918   1.085563   0.000000
    15  C    6.849485   6.456870   2.172082   1.406204   0.000000
    16  C    7.245179   6.543712   2.172842   1.389232   2.382201
    17  C    8.246641   7.856952   3.462174   2.489028   1.408063
    18  C    8.549652   7.896549   3.405288   2.404338   2.711540
    19  H    7.163148   6.346502   2.518385   2.151848   3.379336
    20  C    9.006232   8.486176   3.919933   2.834986   2.384360
    21  H    8.829489   8.544626   4.351805   3.468285   2.184441
    22  N    6.286779   6.091651   2.643616   2.403394   1.387302
    23  N    6.070601   6.055025   3.425657   3.417581   2.498532
    24  N    5.576936   6.686830   9.813768  10.665743  10.688103
    25  O    6.228023   7.330807   9.987230  10.759595  10.620970
    26  O    6.219304   7.306783  10.758902  11.649414  11.753961
    27  F    2.601328   2.853476   3.897598   4.745128   5.122581
    28  F    4.583374   4.474190   2.438610   2.882988   2.971055
    29  F    3.573807   3.784790   3.492356   4.184629   4.100332
    30  F    3.115400   2.622411   2.078819   3.127625   3.835219
[...]
 0028612,-0.00025785,-0.00017269,0.00009005,0.00008189,-0.00016423,-0.0
 0000878,0.00011337,0.00007268,-0.00004313,-0.00006043,-0.00015443,0.00
 010613,-0.00002359,-0.00013685,-0.00037631,-0.00002724,0.00001020,-0.0
 0006351,0.00001822,-0.00001708,-0.00002615,0.00004967,-0.00001279,-0.0
 0003337,0.00149231,0.00094929,-0.00118024,-0.00259468,-0.00028172,-0.0
 0044695,0.00244306,0.00086337,-0.00253678,-0.00011463,0.00019862,0.000
 73066,-0.00001324,0.00026670,-0.00016464,-0.00045438,-0.00022902,0.000
 24363,-0.00039209,-0.00021682,0.00010386,0.00010624,0.00029684,-0.0001
 4612,0.00006417,0.00000695,-0.00007202,0.00009811,-0.00029190,-0.00003
 811,-0.00006498,-0.00000825,-0.00005673,-0.00104291,0.00012207,-0.0012
 2461,0.00050054,0.00011045,0.00008452,0.00001763,0.00005940,-0.0000393
 7,-0.00000736,-0.00004271,0.00002555,-0.00002116,-0.00002899,0.0000171
 7,-0.03016133,0.02016720,-0.01825033,0.01237035,0.03296448,-0.01553724
 ,0.00326737,-0.00963177,0.01219347,0.03074816,-0.09809055,0.11487269,-
 0.00295132,-0.00024074,0.00032345,-0.00110340,-0.00083481,0.00055344,-
 0.00042061,-0.00042986,-0.00041511,0.00025772,0.00052352,0.00007313,-0
 .00036260,-0.00081038,0.00008844,0.00168171,0.00094520,0.00007392,-0.0
 0379835,0.00272323,0.00293743,0.00003927,-0.00011247,0.00011008,-0.000
 22016,-0.00005060,-0.00001086,-0.00008940,0.00030358,0.00002404,-0.010
 15414,-0.00157886,0.00336918,0.00850317,-0.00315793,0.00106263,-0.0038
 0110,0.00324019,-0.00235115,-0.00295106,-0.00017306,-0.00036264,-0.001
 10368,-0.00071223,-0.00070430,0.00168195,0.00094159,0.00010976,-0.0004
 2046,-0.00050224,0.00032395,-0.00036273,-0.00077800,-0.00024366,-0.000
 08941,0.00030248,0.00003539,0.00025772,0.00052783,0.00002965,0.0000392
 2,-0.00008899,-0.00012976,-0.01015357,-0.00089535,-0.00360651,0.008499
 02,-0.00289269,-0.00165768,-0.00208289,0.00167572,-0.00020378,0.000906
 29,-0.00080786,0.00008204,0.00120768,-0.00060111,0.00015709,-0.1533378
 3,-0.02725904,-0.08247377,-0.15328584,-0.04272487,0.07563973,-0.067975
 33,0.02070316,0.02111911,-0.06798858,0.02442404,-0.01671169,0.45976772
 ,0.00064197,0.00138494,0.00095418,0.00059541,-0.00092155,0.00040730,-0
 .00306607,-0.00173080,-0.00098345,0.00082603,-0.00195937,0.00007525,0.
 00102976,0.00101173,0.00030746,-0.00116411,-0.00065441,-0.00051378,0.0
 0947366,0.00236876,0.00079897,-0.00036145,-0.00006760,-0.00006181,-0.0
 0000985,-0.00014127,0.00000103,0.00057615,0.00001975,0.00005791,-0.005
 32626,0.00284894,0.00112478,-0.00667713,-0.00468248,0.00068312,0.01086
 769,0.00281366,-0.00079095,0.00038917,0.00141512,-0.00082526,0.0005225
 7,-0.00052398,-0.00067265,-0.00139878,-0.00076151,0.00052642,-0.003166
 33,-0.00192700,0.00072764,0.00107169,0.00118497,-0.00014743,0.00059550
 ,0.00003633,-0.00008881,0.00085107,-0.00200164,-0.00046305,-0.00037924
 ,-0.00008345,0.00001459,-0.00617652,0.00285464,-0.00151259,-0.00512006
 ,-0.00400912,-0.00148398,-0.00060530,0.00127240,0.00000038,0.00018182,
 -0.00075122,-0.00001214,0.00005087,-0.00052606,-0.00004609,-0.02792747
 ,-0.06077319,-0.02272678,-0.04133013,-0.07091710,0.03212433,0.02170162
 ,-0.11535178,-0.05900235,0.02562472,-0.13781673,0.05352472,0.02812379,
 0.38854499,-0.00123779,-0.00067349,0.00075931,-0.00031754,0.00133771,0
 .00081660,-0.00081882,-0.00026579,-0.00062549,0.00021062,-0.00067655,-
 0.00004179,0.00031747,0.00072901,0.00037325,-0.00132522,-0.00001577,-0
 .00082211,0.00811937,0.00146577,0.00275453,-0.00012717,-0.00006562,0.0
 0015623,-0.00002196,-0.00000541,0.00009090,0.00015655,-0.00000479,0.00
 019131,-0.00489959,-0.00148645,0.00482916,0.00737450,0.00192157,0.0000
 5100,-0.00612652,-0.00145490,0.00231183,0.00134014,0.00080285,0.000729
 38,0.00042763,-0.00160241,0.00041942,0.00107361,0.00002758,-0.00071562
 ,0.00020888,0.00000881,-0.00042970,-0.00011157,-0.00056840,0.00020018,
 -0.00004176,-0.00002597,0.00017479,-0.00004658,0.00028908,0.00000053,0
 .00005475,0.00001830,0.00017208,0.00377807,0.00109667,0.00482402,-0.00
 853104,-0.00272326,-0.00061926,0.00013595,-0.00000536,0.00021177,-0.00
 011075,-0.00001137,-0.00013179,-0.00020730,-0.00001067,-0.00012457,-0.
 07190975,-0.01920643,-0.11838134,0.06514644,0.02860468,-0.10829040,0.0
 2226009,-0.06018189,-0.11018192,-0.01763733,0.05470374,-0.08769244,0.0
 0274044,-0.00201399,0.40893411,-0.00000476,0.00001340,0.00000246,0.000
 00654,-0.00001733,0.00000216,-0.00000692,-0.00000695,-0.00000284,0.000
 00235,0.00000193,0.00000069,-0.00000406,-0.00000575,-0.00000067,0.0000
 1476,-0.00000072,0.00000205,-0.00002401,-0.00000090,0.00000116,-0.0000
 0129,-0.00000119,0.00000023,-0.00000239,-0.00000088,-0.00000029,-0.000
 00323,0.00000157,0.00000032,-0.00002862,0.00000618,0.00000574,-0.00001
 555,-0.00001452,-0.00000030,-0.00013780,-0.00002792,-0.00009357,0.0002
 6691,0.00046947,-0.00028372,0.00011174,0.00215706,0.00164937,0.0010230
 7,0.00051022,0.00087310,-0.01398849,-0.00764278,0.00270349,0.00116578,
 -0.00339393,0.00038576,0.00030184,0.00006106,0.00001616,-0.30769047,-0
 .10087562,0.04285347,0.00077176,-0.00013622,-0.00108423,-0.00105275,0.
 00024535,0.00053958,0.00016758,-0.00018168,-0.00016203,-0.00002747,0.0
 0001208,-0.00000375,0.00001154,-0.00000478,0.00000128,0.00001573,-0.00
 000446,0.00000244,0.00008861,0.00001820,0.00002273,0.00015460,0.000005
 47,-0.00000160,0.00006685,-0.00000774,-0.00002014,0.00011484,0.0000158
 2,0.00000175,-0.00022015,-0.00001394,0.00001976,0.32281680,-0.00000228
 ,0.00000426,0.00000032,0.00000411,-0.00000688,0.00000091,-0.00000242,-
 0.00000102,-0.00000085,0.00000131,0.00000052,0.00000036,-0.00000135,-0
 .00000239,-0.00000056,0.00000650,0.00000141,0.00000144,-0.00001853,-0.
 00000100,-0.00000094,-0.00000005,-0.00000008,0.00000008,-0.00000092,0.
 00000023,-0.00000020,-0.00000127,0.00000162,-0.00000034,-0.00001248,0.
 00000321,0.00000089,0.00000041,-0.00000629,0.00000034,-0.00000574,0.00
 005991,0.00008510,0.00051018,-0.00078704,-0.00005066,0.00262582,-0.001
 84156,-0.00153904,0.00082810,-0.00585487,-0.00138481,0.01973322,0.0109
 6084,-0.00313233,-0.02896646,-0.00541649,0.00469007,-0.00162971,-0.000
 09547,0.00027600,-0.10050849,-0.09600271,0.01391727,-0.00023068,0.0008
 0522,0.00063288,0.00166536,0.00065542,-0.00044838,-0.00014983,-0.00044
 977,0.00000132,-0.00000921,0.00001060,-0.00000110,0.00000422,-0.000005
 71,0.00000060,0.00000463,-0.00000407,0.00000066,0.00003427,0.00002570,
 0.00002170,0.00005359,0.00005521,0.00003142,0.00007385,0.00007018,0.00
 003609,-0.00002264,0.00005151,-0.00000917,-0.00005177,-0.00013338,-0.0
 0003890,0.10597085,0.09642726,0.00000032,-0.00000242,0.00000013,-0.000
 00170,0.00000325,0.00000059,0.00000137,0.00000120,0.00000019,-0.000000
 37,-0.00000014,-0.00000042,0.00000034,0.00000074,0.00000122,-0.0000022
 1,0.00000052,-0.00000109,0.00000201,0.00000016,0.00000260,0.,0.0000000
 3,0.00000106,0.00000012,0.00000010,0.00000074,0.00000025,-0.00000016,0
 .00000142,0.00000311,-0.00000371,0.00000493,0.00000336,0.00000260,0.00
 000077,-0.00004773,0.00007738,-0.00055473,-0.00028432,-0.00007235,-0.0
 0108508,0.00163153,-0.00143919,0.00635704,0.00092016,-0.00129844,0.004
 73113,0.00581114,0.00240612,0.00285173,-0.00251519,-0.00045367,0.00542
 913,-0.00017515,-0.00005917,0.00034747,0.04291928,0.01398826,-0.046247
 97,-0.00108488,0.00062328,-0.00418434,0.00064164,-0.00025625,0.0012977
 0,-0.00015271,0.00013420,-0.00041563,0.00000344,-0.00000134,0.00000209
 ,-0.00000128,0.00000054,-0.00000152,-0.00000208,0.00000047,-0.00000127
 ,-0.00000078,0.00000445,-0.00002078,0.00005746,0.00004278,-0.00000086,
 0.00000347,0.00000472,-0.00002183,-0.00003556,0.00001941,-0.00002388,0
 .00000096,-0.00004536,0.00008300,-0.04771952,-0.01370200,0.03545483,-0
 .00005349,0.00016107,0.00002518,0.00009803,-0.00021227,0.00002688,-0.0
 0008763,-0.00007641,-0.00003280,0.00003022,0.00001669,0.00000869,-0.00
 004370,-0.00006657,-0.00001062,0.00017655,-0.00000367,0.00002856,-0.00
 031314,-0.00001398,0.00000189,-0.00001440,-0.00001168,0.00000084,-0.00
 002747,-0.00000837,-0.00000515,-0.00003686,0.00002150,-0.00000092,-0.0
 0035352,0.00010162,0.00004784,-0.00015428,-0.00016465,-0.00000148,-0.0
 0075917,0.00045575,0.00003426,-0.00308052,-0.00105052,0.00224939,0.000
 99996,-0.00427799,-0.00097840,-0.02826085,0.01697312,0.00788985,0.0003
 1741,-0.00665508,0.00087881,-0.10473917,0.00433809,0.00516549,-0.00006
 951,0.00006246,-0.00089344,0.01106203,0.01698530,-0.00002764,0.0013866
 2,-0.00090676,-0.00045256,-0.00450484,0.00220737,0.00066715,0.00111126
 ,-0.00114311,-0.00037859,-0.00031636,0.00016312,-0.00004591,0.00013358
 ,-0.00007031,0.00001796,0.00017913,-0.00006066,0.00002943,0.00095526,0
 .00025078,0.00035751,0.00131313,0.00027875,0.00013308,0.00093585,0.000
 27913,0.00003682,0.00095780,0.00023363,0.00002914,-0.00208282,-0.00056
 744,-0.00024978,-0.00138070,-0.00422374,-0.00104869,0.74926564,0.00006
 507,-0.00003967,-0.00000716,0.00005789,0.00007084,0.00000640,-0.000040
 86,0.00003150,0.00000286,0.00000564,-0.00008220,-0.00000733,0.00005891
 ,0.00006749,0.00001493,-0.00012186,0.00000359,-0.00001970,0.00025697,0
 .00003560,0.00000412,-0.00000288,0.00001235,0.00000129,0.00001112,0.00
 000982,0.00000287,0.00003543,-0.00000026,0.00000229,0.00003692,0.00013
 675,-0.00005544,0.00013010,0.00008302,0.00001548,-0.00037159,0.0014161
 4,0.00044229,-0.00775231,-0.00242012,0.00014327,-0.00403780,-0.0003225
 3,0.00108798,0.00726017,0.02045380,0.00079292,-0.00053476,-0.00532773,
 -0.00138517,0.00384347,-0.10333551,-0.00327311,-0.00386770,-0.00252263
 ,0.00096443,0.02735478,-0.02010045,-0.00787452,0.00090783,-0.00033840,
 -0.00019689,0.00274913,-0.00339274,-0.00054391,-0.00060672,0.00143283,
 0.00030268,0.00015112,0.00001698,0.00002952,-0.00006235,-0.00002674,-0
 .00001202,-0.00010177,-0.00001055,-0.00002088,-0.00073473,-0.00037120,
 -0.00031723,-0.00125557,-0.00053465,-0.00018998,-0.00075979,-0.0005159
 2,-0.00015332,-0.00076641,-0.00062890,0.00004198,0.00160441,0.00123156
 ,0.00020633,-0.00031550,-0.00104510,0.00040456,0.19890976,0.86554321,0
 .00001685,-0.00003710,-0.00000449,-0.00001506,0.00005112,-0.00000219,0
 .00001334,0.00001865,0.00000618,-0.00000536,-0.00001202,-0.00000329,0.
 00001447,0.00002032,0.00000602,-0.00004801,0.00000182,-0.00000934,0.00
 008783,0.00000697,0.00000524,0.00000191,0.00000319,0.00000278,0.000006
 04,0.00000263,0.00000288,0.00001066,-0.00000414,0.00000301,0.00007037,
 -0.00000984,-0.00000156,0.00004632,0.00004055,0.00000452,0.00000734,0.
 00011913,-0.00051304,0.00155321,-0.00107987,0.00854835,-0.00072911,0.0
 0089129,-0.00034730,0.00676118,-0.00138540,0.00064574,0.00160352,-0.00
 020606,0.00830916,0.00503048,-0.00339737,-0.08264543,-0.00126558,0.000
 24362,-0.00426615,0.00120257,-0.00592957,0.00090182,-0.00023832,0.0001
 6939,-0.00018683,0.00075386,-0.00057734,-0.00201932,-0.00018844,0.0003
 4369,0.00055182,0.00007682,-0.00002924,0.00001523,-0.00003202,0.000010
 56,-0.00000724,-0.00004545,0.00001037,-0.00000991,-0.00024975,-0.00008
 324,-0.00014946,-0.00026838,-0.00008728,-0.00009260,-0.00025617,-0.000
 13666,-0.00007802,-0.00028991,-0.00007425,-0.00005341,0.00052595,0.000
 20155,0.00025251,-0.00064614,0.00124705,-0.00415555,-0.08793474,0.0280
 9954,0.23376629,0.00002329,-0.00009850,-0.00001600,-0.00007033,0.00012
 687,-0.00001813,0.00006482,0.00004643,0.00002150,-0.00002119,0.0000027
 0,-0.00000477,0.00001816,0.00003250,0.00000440,-0.00009479,0.00000141,
 -0.00001514,0.00016243,0.00000147,-0.00000261,0.00000970,0.00000567,-0
 .00000049,0.00001573,0.00000414,0.00000293,0.00001727,-0.00001392,0.00
 000017,0.00021855,-0.00008438,-0.00002344,0.00009717,0.00009862,-0.000
 00016,0.00009077,0.00076412,0.00016351,-0.00283399,-0.00138359,0.00018
 574,-0.00080240,0.00032681,0.00026764,-0.00157223,0.00852183,0.0015636
 0,0.00048423,0.00078481,-0.00015878,-0.06576912,-0.00851762,0.01628778
 ,0.00165965,-0.00027073,-0.00017996,-0.00294566,-0.00347245,0.00049489
 ,-0.00028120,0.00012383,0.00011315,0.00166680,-0.00072090,-0.00035049,
 -0.00044072,0.00041684,0.00018916,0.00017913,-0.00010863,0.00002477,-0
 .00007586,0.00005011,-0.00000960,-0.00009883,0.00004103,-0.00001559,-0
 .00053114,-0.00008907,-0.00020980,-0.00070477,-0.00002413,-0.00013605,
 -0.00048772,-0.00003831,0.00001419,-0.00073411,-0.00002217,-0.00007538
 ,0.00120765,0.00000971,0.00021271,-0.00218752,0.00315017,0.00072571,-0
 .48738407,-0.16293904,0.06756884,0.57499918,-0.00002539,0.00001138,0.0
 0000200,-0.00002628,-0.00002256,-0.00000340,0.00002002,-0.00001016,0.0
 0000004,-0.00000352,0.00003356,0.00000263,-0.00002328,-0.00002579,-0.0
 0000579,0.00004499,-0.00000167,0.00000727,-0.00009596,-0.00001480,-0.0
 0000186,0.00000153,-0.00000475,-0.00000042,-0.00000390,-0.00000375,-0.
 00000096,-0.00001384,-0.00000066,-0.00000084,-0.00000571,-0.00005837,0
 .00002104,-0.00004407,-0.00002793,-0.00000589,-0.00003855,-0.00029829,
 -0.00005286,0.00126722,0.00091224,0.00001457,0.00200493,-0.00021438,-0
 .00049592,0.00076457,-0.00301958,-0.00071454,-0.00037336,0.00250919,0.
 00043787,0.00681759,0.01758874,-0.00146272,0.00168986,-0.00008120,-0.0
 0040445,0.00384596,-0.00880148,-0.00191371,-0.00014046,0.00013288,0.00
 002253,-0.00082418,0.00156278,0.00026759,0.00034307,-0.00079368,-0.000
 20435,-0.00005380,-0.00001253,-0.00001087,0.00002209,0.00001362,0.0000
 0439,0.00003722,0.00000640,0.00000776,0.00026160,0.00014693,0.00011250
 ,0.00044802,0.00021722,0.00006420,0.00028516,0.00022043,0.00006906,0.0
 0022810,0.00025523,-0.00002806,-0.00055922,-0.00052175,-0.00006762,0.0
 0394901,0.00061784,-0.00069921,-0.15116207,-0.19466521,0.01760816,0.22
 282564,0.23856143,-0.00000695,0.00002161,0.00000280,0.00001254,-0.0000
 2869,0.00000230,-0.00001144,-0.00001051,-0.00000409,0.00000396,0.00000
 270,0.00000166,-0.00000571,-0.00000908,-0.00000282,0.00002374,-0.00000
 078,0.00000469,-0.00004167,-0.00000191,-0.00000241,-0.00000151,-0.0000
 0141,-0.00000137,-0.00000327,-0.00000115,-0.00000159,-0.00000463,0.000
 00272,-0.00000171,-0.00004381,0.00001377,0.00000039,-0.00002454,-0.000
 02281,-0.00000160,-0.00002592,-0.00017094,-0.00010265,0.00044564,0.000
 51652,-0.00141492,0.00036087,-0.00009051,-0.00005163,0.00070809,-0.002
 23769,0.00117606,-0.00026541,0.00019543,-0.00068509,0.01794334,0.00160
 258,0.01512898,-0.00002482,-0.00002857,0.00072824,0.00124428,-0.000359
 75,0.00099959,0.00007981,-0.00003053,0.00016643,-0.00038667,0.00031062
 ,0.00014023,0.00011967,-0.00017728,-0.00006992,-0.00004072,0.00002040,
 -0.00000793,0.00001701,-0.00000871,0.00000391,0.00002330,-0.00000752,0
 .00000507,0.00012723,0.00002917,0.00007368,0.00013584,0.00001893,0.000
 05496,0.00012204,0.00003806,0.00003037,0.00017779,0.00001334,0.0000381
 8,-0.00027128,-0.00003248,-0.00012886,0.00080283,-0.00051177,-0.000538
 00,0.06880381,0.02006269,-0.08253941,-0.08829333,-0.02297254,0.0414647
 8,0.00002236,-0.00006853,-0.00001116,-0.00003988,0.00009033,-0.0000113
 9,0.00003726,0.00003358,0.00001419,-0.00001278,-0.00000758,-0.00000371
 ,0.00001857,0.00002864,0.00000434,-0.00007504,0.00000156,-0.00001195,0
 .00013228,0.00000520,-0.00000114,0.00000616,0.00000525,-0.00000052,0.0
 0001154,0.00000390,0.00000207,0.00001532,-0.00000890,0.00000020,0.0001
 4846,-0.00004073,-0.00002213,0.00007266,0.00007138,0.00000085,0.000403
 45,0.00000779,0.00001540,0.00218177,0.00004108,-0.00051401,-0.00066669
 ,0.00193701,0.00037805,-0.00826637,0.00239399,0.00209516,0.00062857,0.
 00212775,-0.00013267,0.01271796,0.02727623,0.00401298,-0.00126021,0.00
 423163,0.00065922,-0.00506484,-0.00002363,0.00133359,-0.00049328,0.000
 21577,0.00010259,0.00183042,-0.00058061,-0.00038973,-0.00064796,0.0005
 4110,0.00026460,0.00013358,-0.00006737,0.00001926,-0.00005632,0.000028
 69,-0.00000745,-0.00007586,0.00002496,-0.00001237,-0.00040875,-0.00009
 541,-0.00015893,-0.00052511,-0.00007403,-0.00007053,-0.00039873,-0.000
 09365,-0.00001084,-0.00047475,-0.00006868,-0.00002844,0.00090629,0.000
 15685,0.00014350,-0.00032512,0.00117097,0.00034652,-0.13525996,-0.0591
 6706,0.00686087,-0.01387891,-0.09146300,-0.00170012,0.14866389,-0.0000
 3554,0.00001014,0.00000198,-0.00004405,-0.00002493,-0.00000625,0.00003
 356,-0.00001230,0.00000133,-0.00000641,0.00004963,0.00000368,-0.000032
 77,-0.00003589,-0.00000832,0.00005982,-0.00000216,0.00000970,-0.000131
 15,-0.00002125,-0.00000286,0.00000303,-0.00000659,-0.00000078,-0.00000
 444,-0.00000534,-0.00000129,-0.00001889,-0.00000200,-0.00000135,0.0000
 0759,-0.00009300,0.00002988,-0.00006355,-0.00003507,-0.00000913,-0.000
 11556,-0.00031512,-0.00008439,0.00120010,0.00094662,-0.00002254,0.0003
 1412,-0.00042459,-0.00021316,-0.00492548,-0.00339997,0.00038788,-0.000
 42654,-0.00236738,-0.00007627,0.01219736,-0.06232246,-0.01094240,0.003
 37938,-0.00022777,-0.00061427,0.00755061,0.00037318,-0.00164774,0.0006
 7379,-0.00032254,-0.00016716,-0.00084967,0.00127613,0.00020128,0.00004
 224,-0.00056446,-0.00010633,-0.00006549,-0.00002629,-0.00001429,0.0000
 2670,0.00002360,0.00000588,0.00004730,0.00001244,0.00001038,0.00035911
 ,0.00020770,0.00016138,0.00061928,0.00030335,0.00008929,0.00039207,0.0
 0031272,0.00009933,0.00032358,0.00036041,-0.00003809,-0.00077665,-0.00
 073240,-0.00010706,-0.00078487,0.00190287,0.00031866,-0.07076286,-0.55
 486498,-0.03604024,-0.05955128,-0.05421135,0.00385607,0.11136553,0.674
 23906,-0.00000783,0.00001480,0.00000125,0.00000344,-0.00002124,-0.0000
 0103,-0.00000329,-0.00000813,-0.00000191,0.00000159,0.00000742,0.00000
 187,-0.00000708,-0.00000973,-0.00000371,0.00002135,-0.00000105,0.00000
 465,-0.00003937,-0.00000364,-0.00000400,-0.00000017,-0.00000141,-0.000
 00271,-0.00000218,-0.00000135,-0.00000190,-0.00000478,0.00000132,-0.00
 000206,-0.00002354,-0.00000017,-0.00000537,-0.00002266,-0.00001628,-0.
 00000362,-0.00006570,-0.00006228,0.00021300,-0.00047078,0.00021597,-0.
 00070405,0.00017121,-0.00044821,-0.00003737,0.00139149,-0.00096859,0.0
 0088500,-0.00042463,-0.00052983,-0.00128442,0.00243724,-0.01393615,0.0
 1653802,0.00055254,-0.00084933,-0.00051005,0.00213116,-0.00012523,0.00
 122423,0.00014190,-0.00006107,-0.00017037,-0.00044733,0.00024576,0.000
 11583,0.00012835,-0.00017046,-0.00005425,-0.00003132,0.00000828,-0.000
 00769,0.00001290,-0.00000199,0.00000390,0.00001918,-0.00000271,0.00000
 509,0.00011492,0.00004526,0.00008207,0.00014461,0.00004484,0.00007537,
 0.00011767,0.00007028,0.00004784,0.00013553,0.00003526,0.00004477,-0.0
 0023763,-0.00010668,-0.00015060,0.00013226,-0.00012344,0.00068517,0.00
 562812,-0.03857175,-0.07593700,0.00166910,0.01040436,0.02553169,-0.013
 16629,0.04492718,0.03342235\\-0.00000068,0.00000189,0.00000129,0.00000
 814,0.00001775,0.00002650,-0.00000075,0.00000266,0.00000017,0.00000010
 ,0.00000279,0.00000029,0.00000125,0.00000353,-0.00000221,0.00000070,0.
 00000151,-0.00000047,-0.00000019,0.00000014,0.00000017,-0.00000046,0.0
 0000129,0.00000026,0.00000037,0.00000153,0.00000004,0.00000049,0.00000
 034,0.00000017,-0.00002064,-0.00003332,-0.00005993,0.00000981,0.000020
 32,0.00003326,0.00000036,-0.00000060,0.00000013,0.00000154,-0.00000325
 ,0.00000104,-0.00000909,-0.00002528,0.00002479,-0.00000178,-0.00000053
 ,-0.00000087,0.00000232,-0.00000214,-0.00000020,-0.00000175,-0.0000028
 7,-0.00000352,-0.00000131,-0.00000051,-0.00000016,-0.00000134,-0.00000
 362,-0.00000051,0.00000134,-0.00000189,0.00000003,0.00002183,0.0000484
 2,-0.00005809,-0.00001065,-0.00002902,0.00003162,-0.00000046,0.0000061
 3,0.00000945,0.00000175,-0.00000053,-0.00000316,0.00000258,0.00000536,
 -0.00000235,-0.00000090,0.00000033,0.00000003,0.00000100,-0.00000056,0
 .00000005,0.00000136,-0.00000007,-0.00000011,-0.00000163,0.00000142,-0
 .00000106,0.00000007,-0.00000098,0.00000065,0.00000164,-0.00000052,-0.
 00000073,-0.00000031,-0.00000902,0.00001011,-0.00000611,-0.00000738,-0
 .00000341,0.00000140,0.00000667,-0.00000325\\\@


 THERE IS NO CURE FOR BIRTH AND DEATH SAVE TO ENJOY THE INTERVAL.

                               -- GEORGE SANTAYANA
 Job cpu time:  0 days  2 hours 59 minutes 51.1 seconds.
 File lengths (MBytes):  RWF=    850 Int=      0 D2E=      0 Chk=     15 Scr=      1
 Normal termination of Gaussian 09 at Fri Mar 29 20:21:15 2019.
