
                                 *****************
                                 * O   R   C   A *
                                 *****************

           --- An Ab Initio, DFT and Semiempirical electronic structure package ---

                  #######################################################
                  #                        -***-                        #
                  #  Department of molecular theory and spectroscopy    #
                  #              Directorship: Frank Neese              #
                  # Max Planck Institute for Chemical Energy Conversion #
                  #                  D-45470 Muelheim/Ruhr              #
                  #                       Germany                       #
                  #                                                     #
                  #                  All rights reserved                #
                  #                        -***-                        #
                  #######################################################


                         Program Version 3.0.2 -  RELEASE  -


 With contributions from (in alphabetic order):
   Ute Becker             : Parallelization
   Dmytro Bykov           : SCF Hessian
   Dmitry Ganyushin       : Spin-Orbit,Spin-Spin,Magnetic field MRCI
   Andreas Hansen         : Spin unrestricted coupled pair/coupled cluster methods
   Dimitrios Liakos       : Extrapolation schemes; parallel MDCI
   Robert Izsak           : Overlap fitted RIJCOSX, COSX-SCS-MP3
   Christian Kollmar      : KDIIS, OOCD, Brueckner-CCSD(T), CCSD density
   Simone Kossmann        : Meta GGA functionals, TD-DFT gradient, OOMP2, MP2 Hessian
   Taras Petrenko         : DFT Hessian,TD-DFT gradient, ASA and ECA modules, normal mode analysis, Resonance Raman, ABS, FL, XAS/XES, NRVS
   Christoph Reimann      : Effective Core Potentials
   Michael Roemelt        : Restricted open shell CIS
   Christoph Riplinger    : Improved optimizer, TS searches, QM/MM, DLPNO-CCSD
   Barbara Sandhoefer     : DKH picture change effects
   Igor Schapiro          : Molecular dynamics
   Kantharuban Sivalingam : CASSCF convergence, NEVPT2
   Boris Wezisla          : Elementary symmetry handling
   Frank Wennmohs         : Technical directorship


 We gratefully acknowledge several colleagues who have allowed us to
 interface, adapt or use parts of their codes:
   Stefan Grimme, W. Hujo, H. Kruse, T. Risthaus : VdW corrections, initial TS optimization,
                                                   DFT functionals, gCP
   Ed Valeev                                     : LibInt (2-el integral package), F12 methods
   Garnet Chan, S. Sharma, R. Olivares           : DMRG
   Ulf Ekstrom                                   : XCFun DFT Library
   Mihaly Kallay                                 : mrcc  (arbitrary order and MRCC methods)
   Andreas Klamt, Michael Diedenhofen            : otool_cosmo (COSMO solvation model)
   Frank Weinhold                                : gennbo (NPA and NBO analysis)
   Christopher J. Cramer and Donald G. Truhlar   : smd solvation model


 Your calculation uses the libint2 library for the computation of 2-el integrals
 For citations please refer to: http://libint.valeyev.net

 This ORCA versions uses:
   CBLAS   interface :  Fast vector & matrix operations
   LAPACKE interface :  Fast linear algebra routines
   SCALAPACK package :  Parallel linear algebra routines


Your calculation utilizes the basis: 3-21G
Cite in your paper:
H - Ne: J.S. Binkley, J.A. Pople, W.J. Hehre, J. Am. Chem. Soc. 102 939 (1980)
Na - Ar: M.S. Gordon, J.S. Binkley, J.A. Pople, W.J. Pietro and W.J. Hehre,
         J. Am. Chem. Soc. 104, 2797 (1983).
 K - Ca: K.D. Dobbs, W.J. Hehre, J. Comput. Chem. 7, 359 (1986).
Ga - Kr: K.D. Dobbs, W.J. Hehre, J. Comput. Chem. 7, 359 (1986).
Sc - Zn: K.D. Dobbs, W.J. Hehre, J. Comput. Chem. 8, 861 (1987).
Y - Cd: K.D. Dobbs, W.J. Hehre, J. Comput. Chem. 8, 880 (1987).
Cs     : A 3-21G quality set derived from the Huzinage MIDI basis sets.
        E.D. Glendening and D. Feller, J. Phys. Chem. (to be published)

================================================================================
                                        WARNINGS
                       Please study these warnings very carefully!
================================================================================
Now building the actual basis set

WARNING: Geometry Optimization
  ===> : Switching off AutoStart
         For restart on a previous wavefunction, please use MOREAD


INFO   : the flag for use of LIBINT has been found!

================================================================================
                                       INPUT FILE
================================================================================
NAME = s-C6H4-N2-B3LYPG-3-21G.orc
|  1> ! B3LYP/G 3-21G TightOpt NumFreq
|  2> %geom MaxIter 1000 end
|  3> %scf MaxIter 1000 end
|  4> %freq Temp 298.15, 323.15, 373.15, 423.15, 473.15, 523.15, 573.15, 623.15 end
|  5> * xyz 0 1
|  6> C          -1.93230         0.08680        -1.08920
|  7> C          -0.54910         0.01550        -0.97270
|  8> C           0.04280         0.83030         0.00700
|  9> C          -0.64710         1.70110         0.86750
| 10> C          -2.02890         1.75070         0.72590
| 11> C          -2.63870         0.94750        -0.24310
| 12> H          -2.45540        -0.51400        -1.82260
| 13> N           1.42610         0.76990         0.13610
| 14> N           2.55780         0.72140         0.24060
| 15> H          -3.70310         0.99400        -0.34250
| 16> H          -2.61650         2.39290         1.34810
| 17> H          -0.13470         2.29570         1.59470
| 18> 
| 19> *
| 20> 
| 21>                          ****END OF INPUT****
================================================================================

                       *****************************
                       * Geometry Optimization Run *
                       *****************************

Geometry optimization settings:
Update method            Update   .... BFGS
Choice of coordinates    CoordSys .... Redundant Internals
Initial Hessian          InHess   .... Almoef's Model

Convergence Tolerances:
Energy Change            TolE     ....  1.0000e-06 Eh
Max. Gradient            TolMAXG  ....  1.0000e-04 Eh/bohr
RMS Gradient             TolRMSG  ....  3.0000e-05 Eh/bohr
Max. Displacement        TolMAXD  ....  1.0000e-03 bohr
RMS Displacement         TolRMSD  ....  6.0000e-04 bohr

------------------------------------------------------------------------------
                        ORCA OPTIMIZATION COORDINATE SETUP
------------------------------------------------------------------------------

The optimization will be done in new redundant internal coordinates
Making redundant internal coordinates   ...  (new redundants) done
Evaluating the initial hessian          ...  (Almloef) done
Evaluating the coordinates              ...  done
Calculating the B-matrix                .... done
Calculating the G-matrix                .... done
Diagonalizing the G-matrix              .... done
The first mode is                       ....   20
The number of degrees of freedom        ....   30

    -----------------------------------------------------------------
                    Redundant Internal Coordinates


    -----------------------------------------------------------------
         Definition                    Initial Value    Approx d2E/dq
    -----------------------------------------------------------------
      1. B(C   1,C   0)                  1.3899         0.624963   
      2. B(C   2,C   1)                  1.4050         0.591274   
      3. B(C   3,C   2)                  1.4052         0.590766   
      4. B(C   4,C   3)                  1.3899         0.624976   
      5. B(C   5,C   4)                  1.3986         0.605473   
      6. B(C   5,C   0)                  1.3985         0.605677   
      7. B(H   6,C   0)                  1.0828         0.369743   
      8. B(N   7,C   2)                  1.3906         0.558317   
      9. B(N   8,N   7)                  1.1375         1.267016   
     10. B(H   9,C   5)                  1.0700         0.387494   
     11. B(H  10,C   4)                  1.0700         0.387602   
     12. B(H  11,C   3)                  1.0700         0.387539   
     13. A(C   5,C   0,H   6)          120.4813         0.353091   
     14. A(C   1,C   0,H   6)          120.6016         0.354972   
     15. A(C   1,C   0,C   5)          118.9170         0.432865   
     16. A(C   0,C   1,C   2)          116.6113         0.430997   
     17. A(C   3,C   2,N   7)          117.2857         0.419571   
     18. A(C   1,C   2,N   7)          117.2971         0.419636   
     19. A(C   1,C   2,C   3)          125.4172         0.426669   
     20. A(C   2,C   3,C   4)          116.6031         0.430932   
     21. A(C   4,C   3,H  11)          121.7007         0.357818   
     22. A(C   2,C   3,H  11)          121.6962         0.354415   
     23. A(C   3,C   4,H  10)          120.5403         0.357828   
     24. A(C   3,C   4,C   5)          118.9186         0.432841   
     25. A(C   5,C   4,H  10)          120.5412         0.355906   
     26. A(C   4,C   5,H   9)          118.2376         0.355889   
     27. A(C   0,C   5,H   9)          118.2296         0.355909   
     28. A(C   0,C   5,C   4)          123.5328         0.430408   
     29. L(C   2,N   7,N   8,C   1, 2) 179.8630         0.475382   
     30. L(C   2,N   7,N   8,C   1, 1) 179.9895         0.475382   
     31. D(C   2,C   1,C   0,H   6)   -179.9505         0.024531   
     32. D(C   2,C   1,C   0,C   5)      0.0352         0.024531   
     33. D(N   7,C   2,C   1,C   0)    179.9815         0.021837   
     34. D(C   3,C   2,C   1,C   0)     -0.0054         0.021837   
     35. D(C   4,C   3,C   2,N   7)    179.9744         0.024021   
     36. D(H  11,C   3,C   2,C   1)    179.9614         0.024021   
     37. D(C   4,C   3,C   2,C   1)     -0.0388         0.024021   
     38. D(H  11,C   3,C   2,N   7)     -0.0254         0.024021   
     39. D(H  10,C   4,C   3,H  11)      0.0503         0.027055   
     40. D(H  10,C   4,C   3,C   2)   -179.9495         0.027055   
     41. D(C   5,C   4,C   3,H  11)   -179.9491         0.027055   
     42. D(C   5,C   4,C   3,C   2)      0.0511         0.027055   
     43. D(H   9,C   5,C   0,C   1)    179.9772         0.025316   
     44. D(C   4,C   5,C   0,H   6)    179.9635         0.025316   
     45. D(C   4,C   5,C   0,C   1)     -0.0223         0.025316   
     46. D(H   9,C   5,C   4,H  10)     -0.0223         0.025298   
     47. D(H   9,C   5,C   4,C   3)    179.9771         0.025298   
     48. D(C   0,C   5,C   4,H  10)    179.9772         0.025298   
     49. D(C   0,C   5,C   4,C   3)     -0.0234         0.025298   
     50. D(H   9,C   5,C   0,H   6)     -0.0370         0.025316   
    -----------------------------------------------------------------

Number of atoms                         .... 12
Number of degrees of freedom            .... 50

         *************************************************************
         *                GEOMETRY OPTIMIZATION CYCLE   1            *
         *************************************************************
---------------------------------
CARTESIAN COORDINATES (ANGSTROEM)
---------------------------------
  C     -1.932300    0.086800   -1.089200
  C     -0.549100    0.015500   -0.972700
  C      0.042800    0.830300    0.007000
  C     -0.647100    1.701100    0.867500
  C     -2.028900    1.750700    0.725900
  C     -2.638700    0.947500   -0.243100
  H     -2.455400   -0.514000   -1.822600
  N      1.426100    0.769900    0.136100
  N      2.557800    0.721400    0.240600
  H     -3.703100    0.994000   -0.342500
  H     -2.616500    2.392900    1.348100
  H     -0.134700    2.295700    1.594700

----------------------------
CARTESIAN COORDINATES (A.U.)
----------------------------
  NO LB      ZA    FRAG    MASS        X           Y           Z
   0 C     6.0000    0    12.011         -3.651517808576034          0.164028228424365         -2.058289705067027
   1 C     6.0000    0    12.011         -1.037648620136159          0.029290755075779         -1.838136610465201
   2 C     6.0000    0    12.011          0.080880278531830          1.569039608994815          0.013228082937449
   3 C     6.0000    0    12.011         -1.222841781260442          3.214613126413441          1.639337421176686
   4 C     6.0000    0    12.011         -3.834065353112828          3.308343542655935          1.371752200613437
   5 C     6.0000    0    12.011         -4.986420349578007          1.790515511890386         -0.459392423156256
   6 H     1.0000    0     1.008         -4.640033549230242         -0.971319232835523         -3.444214851684873
   7 N     7.0000    0    14.007          2.694938439585097          1.454900150505972          0.257191726826682
   8 N     7.0000    0    14.007          4.833541505343777          1.363248433010791          0.454668107821453
   9 H     1.0000    0     1.008         -6.997844846523787          1.878387777117724         -0.647231200868029
  10 H     1.0000    0     1.008         -4.944468429404955          4.521925665860163          2.547539801139239
  11 H     1.0000    0     1.008         -0.254546110239193          4.338244285643017          3.013546265764220

--------------------------------
INTERNAL COORDINATES (ANGSTROEM)
--------------------------------
 C      0   0   0   0.000000     0.000     0.000
 C      1   0   0   1.389927     0.000     0.000
 C      2   1   0   1.405011   116.611     0.000
 C      3   2   1   1.405245   125.417     0.000
 C      4   3   2   1.389922   116.603   359.961
 C      1   2   3   1.398460   118.917     0.035
 H      1   2   3   1.082806   120.602   180.050
 N      3   2   1   1.390624   117.297   179.981
 N      8   3   2   1.137549   179.928    81.715
 H      6   1   2   1.070042   118.230   179.977
 H      5   4   3   1.069966   120.540   180.051
 H      4   3   2   1.070011   121.696   179.961

---------------------------
INTERNAL COORDINATES (A.U.)
---------------------------
 C      0   0   0   0.000000     0.000     0.000
 C      1   0   0   2.626582     0.000     0.000
 C      2   1   0   2.655087   116.611     0.000
 C      3   2   1   2.655529   125.417     0.000
 C      4   3   2   2.626571   116.603   359.961
 C      1   2   3   2.642707   118.917     0.035
 H      1   2   3   2.046208   120.602   180.050
 N      3   2   1   2.627898   117.297   179.981
 N      8   3   2   2.149656   179.928    81.715
 H      6   1   2   2.022086   118.230   179.977
 H      5   4   3   2.021943   120.540   180.051
 H      4   3   2   2.022027   121.696   179.961

---------------------
BASIS SET INFORMATION
---------------------
There are 3 groups of distinct atoms

 Group   1 Type C   : 6s3p contracted to 3s2p pattern {321/21}
 Group   2 Type H   : 3s contracted to 2s pattern {21}
 Group   3 Type N   : 6s3p contracted to 3s2p pattern {321/21}

Atom   0C    basis set group =>   1
Atom   1C    basis set group =>   1
Atom   2C    basis set group =>   1
Atom   3C    basis set group =>   1
Atom   4C    basis set group =>   1
Atom   5C    basis set group =>   1
Atom   6H    basis set group =>   2
Atom   7N    basis set group =>   3
Atom   8N    basis set group =>   3
Atom   9H    basis set group =>   2
Atom  10H    basis set group =>   2
Atom  11H    basis set group =>   2
------------------------------------------------------------------------------
                           ORCA GTO INTEGRAL CALCULATION
------------------------------------------------------------------------------

                         BASIS SET STATISTICS AND STARTUP INFO

 # of primitive gaussian shells          ...   84
 # of primitive gaussian functions       ...  132
 # of contracted shell                   ...   48
 # of contracted basis functions         ...   80
 Highest angular momentum                ...    1
 Maximum contraction depth               ...    3
 Integral package used                   ... LIBINT
 Integral threshhold            Thresh   ...  2.500e-11
 Primitive cut-off              TCut     ...  2.500e-12


                              INTEGRAL EVALUATION

 One electron integrals                  ... done
 Pre-screening matrix                    ... done
 Shell pair data                         ... done (   0.000 sec)

-------------------------------------------------------------------------------
                                 ORCA SCF
-------------------------------------------------------------------------------

------------
SCF SETTINGS
------------
Hamiltonian:
 Density Functional     Method          .... DFT(GTOs)
 Exchange Functional    Exchange        .... B88
   X-Alpha parameter    XAlpha          ....  0.666667
   Becke's b parameter  XBeta           ....  0.004200
 Correlation Functional Correlation     .... LYP
 LDA part of GGA corr.  LDAOpt          .... VWN-3
 Gradients option       PostSCFGGA      .... off
 Hybrid DFT is turned on
   Fraction HF Exchange ScalHFX         ....  0.200000
   Scaling of DF-GGA-X  ScalDFX         ....  0.720000
   Scaling of DF-GGA-C  ScalDFC         ....  0.810000
   Scaling of DF-LDA-C  ScalLDAC        ....  1.000000
   Perturbative correction              ....  0.000000
   NL short-range parameter             ....  4.800000


General Settings:
 Integral files         IntName         .... s-C6H4-N2-B3LYPG-3-21G
 Hartree-Fock type      HFTyp           .... RHF
 Total Charge           Charge          ....    0
 Multiplicity           Mult            ....    1
 Number of Electrons    NEL             ....   54
 Basis Dimension        Dim             ....   80
 Nuclear Repulsion      ENuc            ....    302.2124122421 Eh

Convergence Acceleration:
 DIIS                   CNVDIIS         .... on
   Start iteration      DIISMaxIt       ....    12
   Startup error        DIISStart       ....  0.200000
   # of expansion vecs  DIISMaxEq       ....     5
   Bias factor          DIISBfac        ....   1.050
   Max. coefficient     DIISMaxC        ....  10.000
 Newton-Raphson         CNVNR           .... off
 SOSCF                  CNVSOSCF        .... on
   Start iteration      SOSCFMaxIt      ....   150
   Startup grad/error   SOSCFStart      ....  0.003300
 Level Shifting         CNVShift        .... on
   Level shift para.    LevelShift      ....    0.2500
   Turn off err/grad.   ShiftErr        ....    0.0010
 Zerner damping         CNVZerner       .... off
 Static damping         CNVDamp         .... on
   Fraction old density DampFac         ....    0.7000
   Max. Damping (<1)    DampMax         ....    0.9800
   Min. Damping (>=0)   DampMin         ....    0.0000
   Turn off err/grad.   DampErr         ....    0.1000
 Fernandez-Rico         CNVRico         .... off

SCF Procedure:
 Maximum # iterations   MaxIter         ....  1000
 SCF integral mode      SCFMode         .... Direct
   Integral package                     .... LIBINT
 Reset frequeny         DirectResetFreq ....    20
 Integral Threshold     Thresh          ....  2.500e-11 Eh
 Primitive CutOff       TCut            ....  2.500e-12 Eh

Convergence Tolerance:
 Convergence Check Mode ConvCheckMode   .... Total+1el-Energy
 Energy Change          TolE            ....  1.000e-08 Eh
 1-El. energy change                    ....  1.000e-05 Eh
 Orbital Gradient       TolG            ....  1.000e-05
 Orbital Rotation angle TolX            ....  1.000e-05
 DIIS Error             TolErr          ....  5.000e-07


Diagonalization of the overlap matrix:
Smallest eigenvalue                        ... 2.350e-03
Time for diagonalization                   ...    0.002 sec
Threshold for overlap eigenvalues          ... 1.000e-08
Number of eigenvalues below threshold      ... 0
Time for construction of square roots      ...    0.000 sec
Total time needed                          ...    0.003 sec

-------------------
DFT GRID GENERATION
-------------------

General Integration Accuracy     IntAcc      ...  4.340
Radial Grid Type                 RadialGrid  ... Gauss-Chebyshev
Angular Grid (max. acc.)         AngularGrid ... Lebedev-110
Angular grid pruning method      GridPruning ... 3 (G Style)
Weight generation scheme         WeightScheme... Becke
Basis function cutoff            BFCut       ...    1.0000e-11
Integration weight cutoff        WCut        ...    1.0000e-14
Grids for H and He will be reduced by one unit

# of grid points (after initial pruning)     ...  16516 (   0.0 sec)
# of grid points (after weights+screening)   ...  15522 (   0.0 sec)
nearest neighbour list constructed           ...    0.0 sec
Grid point re-assignment to atoms done       ...    0.0 sec
Grid point division into batches done        ...    0.0 sec
Reduced shell lists constructed in    0.1 sec

Total number of grid points                  ...    15522
Total number of batches                      ...      250
Average number of points per batch           ...       62
Average number of grid points per atom       ...     1294
Average number of shells per batch           ...    32.12 (66.92%)
Average number of basis functions per batch  ...    57.39 (71.74%)
Average number of large shells per batch     ...    25.51 (79.42%)
Average number of large basis fcns per batch ...    46.31 (80.68%)
Maximum spatial batch extension              ...  20.82, 21.39, 20.42 au
Average spatial batch extension              ...   3.56,  4.80,  4.72 au

Time for grid setup =    0.172 sec

------------------------------
INITIAL GUESS: MODEL POTENTIAL
------------------------------
Loading Hartree-Fock densities                     ... done
Calculating cut-offs                               ... done
Setting up the integral package                    ... done
Initializing the effective Hamiltonian             ... done
Starting the Coulomb interaction                   ... done (   0.0 sec)
Reading the grid                                   ... done
Mapping shells                                     ... done
Starting the XC term evaluation                    ... done (   0.1 sec)
  promolecular density results
     # of electrons  =     54.012190446
     EX              =    -45.096275090
     EC              =     -1.827123791
     EX+EC           =    -46.923398880
Transforming the Hamiltonian                       ... done (   0.0 sec)
Diagonalizing the Hamiltonian                      ... done (   0.0 sec)
Back transforming the eigenvectors                 ... done (   0.0 sec)
Now organizing SCF variables                       ... done
                      ------------------
                      INITIAL GUESS DONE (   0.4 sec)
                      ------------------
--------------
SCF ITERATIONS
--------------
ITER       Energy         Delta-E        Max-DP      RMS-DP      [F,P]     Damp
               ***  Starting incremental Fock matrix formation  ***
  0   -338.2905224502   0.000000000000 0.13703925  0.00673143  0.1535428 0.7000
  1   -338.3952078213  -0.104685371099 0.11599924  0.00491201  0.0610893 0.7000
                               ***Turning on DIIS***
  2   -338.4208377270  -0.025629905605 0.16617238  0.00676176  0.0373912 0.0000
  3   -338.4650829844  -0.044245257456 0.08793624  0.00419316  0.0375337 0.0000
  4   -338.4846924290  -0.019609444575 0.01385251  0.00131662  0.0312557 0.0000
  5   -338.4884486452  -0.003756216217 0.01387264  0.00077339  0.0110949 0.0000
  6   -338.4890935971  -0.000644951926 0.00762109  0.00050280  0.0080803 0.0000
                      *** Initiating the SOSCF procedure ***
                           *** Shutting down DIIS ***
                      *** Re-Reading the Fockian *** 
                      *** Removing any level shift *** 
ITER      Energy       Delta-E        Grad      Rot      Max-DP    RMS-DP
  7   -338.48953108  -0.0004374874  0.002757  0.002757  0.005733  0.000409
               *** Restarting incremental Fock matrix formation ***
  8   -338.48972203  -0.0001909463  0.002243  0.034634  0.025178  0.001105
  9   -338.48997540  -0.0002533710  0.001384  0.031623  0.017536  0.001340
 10   -338.48986103   0.0001143683  0.002994  0.010027  0.006896  0.000496
 11   -338.49004263  -0.0001816011  0.001560  0.013927  0.007138  0.000527
 12   -338.48998318   0.0000594497  0.002865  0.010330  0.004892  0.000380
 13   -338.49006794  -0.0000847554  0.000602  0.003494  0.002596  0.000165
 14   -338.49005744   0.0000104963  0.001013  0.002706  0.001891  0.000119
 15   -338.49007136  -0.0000139121  0.000062  0.000154  0.000377  0.000015
 16   -338.49007129   0.0000000663  0.000093  0.000091  0.000218  0.000009
                  ***Gradient check signals convergence***
              ***Rediagonalizing the Fockian in SOSCF/NRSCF***

               *****************************************************
               *                     SUCCESS                       *
               *           SCF CONVERGED AFTER  17 CYCLES          *
               *****************************************************

Setting up the final grid:

General Integration Accuracy     IntAcc      ...  4.670
Radial Grid Type                 RadialGrid  ... Gauss-Chebyshev
Angular Grid (max. acc.)         AngularGrid ... Lebedev-302
Angular grid pruning method      GridPruning ... 3 (G Style)
Weight generation scheme         WeightScheme... Becke
Basis function cutoff            BFCut       ...    1.0000e-11
Integration weight cutoff        WCut        ...    1.0000e-14
Grids for H and He will be reduced by one unit

# of grid points (after initial pruning)     ...  63272 (   0.0 sec)
# of grid points (after weights+screening)   ...  58977 (   0.1 sec)
nearest neighbour list constructed           ...    0.0 sec
Grid point re-assignment to atoms done       ...    0.0 sec
Grid point division into batches done        ...    0.2 sec
Reduced shell lists constructed in    0.5 sec

Total number of grid points                  ...    58977
Total number of batches                      ...      928
Average number of points per batch           ...       63
Average number of grid points per atom       ...     4915
Average number of shells per batch           ...    29.08 (60.58%)
Average number of basis functions per batch  ...    52.16 (65.20%)
Average number of large shells per batch     ...    22.71 (78.09%)
Average number of large basis fcns per batch ...    41.37 (79.32%)
Maximum spatial batch extension              ...  18.53, 20.27, 20.73 au
Average spatial batch extension              ...   2.58,  3.01,  2.98 au

Final grid set up in    0.7 sec
Final integration                            ... done (   0.4 sec)
Change in XC energy                          ...     0.000511036
Integrated number of electrons               ...    53.999965518
Previous integrated no of electrons          ...    54.008321236

----------------
TOTAL SCF ENERGY
----------------

Total Energy       :         -338.48956038 Eh           -9210.76920 eV

Components:
Nuclear Repulsion  :          302.21241224 Eh            8223.61782 eV
Electronic Energy  :         -640.70197262 Eh          -17434.38702 eV

One Electron Energy:        -1053.65157157 Eh          -28671.31688 eV
Two Electron Energy:          412.94959895 Eh           11236.92986 eV

Virial components:
Potential Energy   :         -674.26288272 Eh          -18347.62581 eV
Kinetic Energy     :          335.77332235 Eh            9136.85661 eV
Virial Ratio       :            2.00808950


DFT components:
N(Alpha)           :       26.999982758812 electrons
N(Beta)            :       26.999982758812 electrons
N(Total)           :       53.999965517624 electrons
E(X)               :      -36.118594937021 Eh       
E(C)               :       -2.355260788305 Eh       
E(XC)              :      -38.473855725326 Eh       

---------------
SCF CONVERGENCE
---------------

  Last Energy change         ...   -1.2376e-07  Tolerance :   1.0000e-08
  Last MAX-Density change    ...    8.1276e-06  Tolerance :   1.0000e-07
  Last RMS-Density change    ...    4.1939e-07  Tolerance :   5.0000e-09
  Last Orbital Gradient      ...    1.6084e-06  Tolerance :   1.0000e-05
  Last Orbital Rotation      ...    6.2443e-06  Tolerance :   1.0000e-05

             **** THE GBW FILE WAS UPDATED (s-C6H4-N2-B3LYPG-3-21G.gbw) ****
             **** DENSITY FILE WAS UPDATED (s-C6H4-N2-B3LYPG-3-21G.scfp.tmp) ****
             **** ENERGY FILE WAS UPDATED (s-C6H4-N2-B3LYPG-3-21G.en.tmp) ****
----------------
ORBITAL ENERGIES
----------------

  NO   OCC          E(Eh)            E(eV) 
   0   2.0000     -14.460091      -393.4791 
   1   2.0000     -14.415131      -392.2557 
   2   2.0000     -10.202257      -277.6175 
   3   2.0000     -10.154437      -276.3163 
   4   2.0000     -10.139175      -275.9010 
   5   2.0000     -10.137809      -275.8638 
   6   2.0000     -10.117492      -275.3109 
   7   2.0000     -10.078334      -274.2454 
   8   2.0000      -1.198475       -32.6122 
   9   2.0000      -0.904305       -24.6074 
  10   2.0000      -0.829379       -22.5685 
  11   2.0000      -0.751223       -20.4418 
  12   2.0000      -0.693846       -18.8805 
  13   2.0000      -0.619835       -16.8666 
  14   2.0000      -0.569417       -15.4946 
  15   2.0000      -0.538704       -14.6589 
  16   2.0000      -0.527902       -14.3650 
  17   2.0000      -0.510020       -13.8783 
  18   2.0000      -0.487896       -13.2763 
  19   2.0000      -0.451839       -12.2952 
  20   2.0000      -0.442882       -12.0514 
  21   2.0000      -0.397477       -10.8159 
  22   2.0000      -0.375218       -10.2102 
  23   2.0000      -0.360400        -9.8070 
  24   2.0000      -0.275210        -7.4888 
  25   2.0000      -0.248232        -6.7547 
  26   2.0000      -0.155358        -4.2275 
  27   0.0000      -0.100654        -2.7389 
  28   0.0000      -0.094187        -2.5630 
  29   0.0000       0.010126         0.2756 
  30   0.0000       0.026387         0.7180 
  31   0.0000       0.109197         2.9714 
  32   0.0000       0.161291         4.3890 
  33   0.0000       0.179687         4.8895 
  34   0.0000       0.183142         4.9835 
  35   0.0000       0.200972         5.4687 
  36   0.0000       0.213224         5.8021 
  37   0.0000       0.294307         8.0085 
  38   0.0000       0.331225         9.0131 
  39   0.0000       0.347305         9.4507 
  40   0.0000       0.381237        10.3740 
  41   0.0000       0.482264        13.1231 
  42   0.0000       0.552882        15.0447 
  43   0.0000       0.578654        15.7460 
  44   0.0000       0.683756        18.6060 
  45   0.0000       0.684665        18.6307 
  46   0.0000       0.715549        19.4711 
  47   0.0000       0.747567        20.3423 
  48   0.0000       0.764846        20.8125 
  49   0.0000       0.769483        20.9387 
  50   0.0000       0.786024        21.3888 
  51   0.0000       0.793063        21.5803 
  52   0.0000       0.826280        22.4842 
  53   0.0000       0.827799        22.5256 
  54   0.0000       0.841900        22.9093 
  55   0.0000       0.866417        23.5764 
  56   0.0000       0.917303        24.9611 
  57   0.0000       0.922878        25.1128 
  58   0.0000       0.980455        26.6795 
  59   0.0000       0.987271        26.8650 
  60   0.0000       1.001449        27.2508 
  61   0.0000       1.034933        28.1620 
  62   0.0000       1.053171        28.6582 
  63   0.0000       1.106568        30.1112 
  64   0.0000       1.136275        30.9196 
  65   0.0000       1.141502        31.0618 
  66   0.0000       1.148040        31.2398 
  67   0.0000       1.286868        35.0175 
  68   0.0000       1.318204        35.8702 
  69   0.0000       1.353417        36.8283 
  70   0.0000       1.407888        38.3106 
  71   0.0000       1.455050        39.5939 
  72   0.0000       1.525344        41.5067 
  73   0.0000       1.539392        41.8890 
  74   0.0000       1.546554        42.0839 
  75   0.0000       1.848321        50.2954 
  76   0.0000       1.916269        52.1443 
  77   0.0000       2.163081        58.8604 
  78   0.0000       2.334952        63.5373 
  79   0.0000       2.417867        65.7935 

                    ********************************
                    * MULLIKEN POPULATION ANALYSIS *
                    ********************************

-----------------------
MULLIKEN ATOMIC CHARGES
-----------------------
   0 C :   -0.278115
   1 C :   -0.007000
   2 C :    0.173043
   3 C :   -0.157868
   4 C :   -0.200200
   5 C :   -0.155428
   6 H :    0.181342
   7 N :   -0.156686
   8 N :    0.020994
   9 H :    0.191524
  10 H :    0.196669
  11 H :    0.191724
Sum of atomic charges:   -0.0000000

--------------------------------
MULLIKEN REDUCED ORBITAL CHARGES
--------------------------------
  0 C s       :     3.322235  s :     3.322235
      pz      :     0.995823  p :     2.955880
      px      :     0.972370
      py      :     0.987687
  1 C s       :     3.428776  s :     3.428776
      pz      :     0.839006  p :     2.578224
      px      :     0.880921
      py      :     0.858298
  2 C s       :     3.097694  s :     3.097694
      pz      :     1.105081  p :     2.729264
      px      :     0.506996
      py      :     1.117187
  3 C s       :     3.297692  s :     3.297692
      pz      :     0.957122  p :     2.860176
      px      :     0.954980
      py      :     0.948074
  4 C s       :     3.287327  s :     3.287327
      pz      :     0.994798  p :     2.912873
      px      :     0.905071
      py      :     1.013004
  5 C s       :     3.305728  s :     3.305728
      pz      :     0.911060  p :     2.849700
      px      :     1.022898
      py      :     0.915742
  6 H s       :     0.818658  s :     0.818658
  7 N s       :     3.544658  s :     3.544658
      pz      :     1.209412  p :     3.612027
      px      :     1.187823
      py      :     1.214792
  8 N s       :     3.961739  s :     3.961739
      pz      :     0.985857  p :     3.017267
      px      :     1.028936
      py      :     1.002473
  9 H s       :     0.808476  s :     0.808476
 10 H s       :     0.803331  s :     0.803331
 11 H s       :     0.808276  s :     0.808276


                     *******************************
                     * LOEWDIN POPULATION ANALYSIS *
                     *******************************

----------------------
LOEWDIN ATOMIC CHARGES
----------------------
   0 C :   -0.120722
   1 C :   -0.227928
   2 C :   -0.057443
   3 C :   -0.095524
   4 C :   -0.115374
   5 C :   -0.059043
   6 H :    0.089901
   7 N :    0.197975
   8 N :    0.094096
   9 H :    0.094152
  10 H :    0.102874
  11 H :    0.097037

-------------------------------
LOEWDIN REDUCED ORBITAL CHARGES
-------------------------------
  0 C s       :     2.938345  s :     2.938345
      pz      :     1.042648  p :     3.182377
      px      :     1.107089
      py      :     1.032639
  1 C s       :     3.111604  s :     3.111604
      pz      :     0.994524  p :     3.116324
      px      :     1.141446
      py      :     0.980355
  2 C s       :     2.899440  s :     2.899440
      pz      :     1.157130  p :     3.158004
      px      :     0.849264
      py      :     1.151610
  3 C s       :     2.942957  s :     2.942957
      pz      :     1.031907  p :     3.152568
      px      :     1.099848
      py      :     1.020813
  4 C s       :     2.925546  s :     2.925546
      pz      :     1.062208  p :     3.189827
      px      :     1.068806
      py      :     1.058814
  5 C s       :     2.947591  s :     2.947591
      pz      :     1.015747  p :     3.111453
      px      :     1.094629
      py      :     1.001076
  6 H s       :     0.910099  s :     0.910099
  7 N s       :     3.182224  s :     3.182224
      pz      :     1.165891  p :     3.619801
      px      :     1.283250
      py      :     1.170660
  8 N s       :     3.562655  s :     3.562655
      pz      :     1.013718  p :     3.343249
      px      :     1.301042
      py      :     1.028489
  9 H s       :     0.905848  s :     0.905848
 10 H s       :     0.897126  s :     0.897126
 11 H s       :     0.902963  s :     0.902963


                      *****************************
                      * MAYER POPULATION ANALYSIS *
                      *****************************

  NA   - Mulliken gross atomic population
  ZA   - Total nuclear charge
  QA   - Mulliken gross atomic charge
  VA   - Mayer's total valence
  BVA  - Mayer's bonded valence
  FA   - Mayer's free valence

  ATOM       NA         ZA         QA         VA         BVA        FA
  0 C      6.2781     6.0000    -0.2781     3.8212     3.8212     0.0000
  1 C      6.0070     6.0000    -0.0070     3.0597     3.0597    -0.0000
  2 C      5.8270     6.0000     0.1730     3.3443     3.3443     0.0000
  3 C      6.1579     6.0000    -0.1579     3.7428     3.7428     0.0000
  4 C      6.2002     6.0000    -0.2002     3.7838     3.7838    -0.0000
  5 C      6.1554     6.0000    -0.1554     3.7088     3.7088     0.0000
  6 H      0.8187     1.0000     0.1813     0.9277     0.9277     0.0000
  7 N      7.1567     7.0000    -0.1567     3.1611     3.1611    -0.0000
  8 N      6.9790     7.0000     0.0210     2.8108     2.8108    -0.0000
  9 H      0.8085     1.0000     0.1915     0.9247     0.9247     0.0000
 10 H      0.8033     1.0000     0.1967     0.9290     0.9290     0.0000
 11 H      0.8083     1.0000     0.1917     0.9267     0.9267     0.0000

  Mayer bond orders larger than 0.1
B(  0-C ,  1-C ) :   1.3696 B(  0-C ,  3-C ) :   0.1175 B(  0-C ,  5-C ) :   1.4104 
B(  0-C ,  6-H ) :   0.9166 B(  1-C ,  2-C ) :   1.3798 B(  1-C ,  8-N ) :   0.1196 
B(  2-C ,  3-C ) :   1.1823 B(  2-C ,  7-N ) :   0.5908 B(  2-C ,  8-N ) :   0.1482 
B(  3-C ,  4-C ) :   1.4926 B(  3-C , 11-H ) :   0.9191 B(  4-C ,  5-C ) :   1.3123 
B(  4-C , 10-H ) :   0.9269 B(  5-C ,  9-H ) :   0.9194 B(  7-N ,  8-N ) :   2.4303 


-------
TIMINGS
-------

Total SCF time: 0 days 0 hours 0 min 10 sec 

Total time                  ....      10.555 sec
Sum of individual times     ....      11.142 sec  (105.6%)

Fock matrix formation       ....       9.868 sec  ( 93.5%)
  Coulomb formation         ....       7.444 sec  ( 75.4% of F)
  XC integration            ....       2.420 sec  ( 24.5% of F)
    Basis function eval.    ....       1.111 sec  ( 45.9% of XC)
    Density eval.           ....       0.415 sec  ( 17.1% of XC)
    XC-Functional eval.     ....       0.326 sec  ( 13.5% of XC)
    XC-Potential eval.      ....       0.507 sec  ( 20.9% of XC)
Diagonalization             ....       0.010 sec  (  0.1%)
Density matrix formation    ....       0.002 sec  (  0.0%)
Population analysis         ....       0.002 sec  (  0.0%)
Initial guess               ....       0.426 sec  (  4.0%)
Orbital Transformation      ....       0.000 sec  (  0.0%)
Orbital Orthonormalization  ....       0.000 sec  (  0.0%)
DIIS solution               ....       0.003 sec  (  0.0%)
SOSCF solution              ....       0.006 sec  (  0.1%)
Grid generation             ....       0.826 sec  (  7.8%)

-------------------------   --------------------
FINAL SINGLE POINT ENERGY      -338.489560377013
-------------------------   --------------------

------------------------------------------------------------------------------
                         ORCA SCF GRADIENT CALCULATION
------------------------------------------------------------------------------

Gradient of the Kohn-Sham DFT energy:
Kohn-Sham wavefunction type      ... RKS
Hartree-Fock exchange scaling    ...    0.200
Number of operators              ...    1
Number of atoms                  ...   12
Basis set dimensions             ...   80
Integral neglect threshold       ... 2.5e-11
Integral primitive cutoff        ... 2.5e-12

Nuclear repulsion gradient       ... done
One Electron Gradient            ... done
Pre-screening matrix             ... done
Starting the two electron gradient:
Two electron gradient done
Exchange-correlation gradient    ... done

------------------
CARTESIAN GRADIENT
------------------

   1   C   :    0.005590508   -0.014957771   -0.015707123
   2   C   :   -0.046289262    0.012099467    0.006675992
   3   C   :    0.022217978    0.006691498    0.010381812
   4   C   :    0.012333229   -0.005760744   -0.004606259
   5   C   :   -0.022318560    0.002228161   -0.000742554
   6   C   :    0.008854382    0.011044668    0.013452472
   7   H   :    0.003160232    0.000337645    0.000919195
   8   N   :   -0.011964330   -0.000270169   -0.001755267
   9   N   :    0.013997098    0.003553749    0.005754525
  10   H   :    0.013868634   -0.002080268   -0.000242079
  11   H   :    0.004484048   -0.005420877   -0.005360545
  12   H   :   -0.003933956   -0.007465359   -0.008770168

Norm of the cartesian gradient     ...    0.073450973
RMS gradient                       ...    0.012241829
MAX gradient                       ...    0.046289262

-------
TIMINGS
-------

Total SCF gradient time            ...        3.514 sec

One electron gradient       ....       0.032 sec  (  0.9%)
Prescreening matrices       ....       0.006 sec  (  0.2%)
Two electron gradient       ....       1.060 sec  ( 30.2%)
XC gradient                 ....       2.321 sec  ( 66.0%)
------------------------------------------------------------------------------
                         ORCA GEOMETRY RELAXATION STEP
------------------------------------------------------------------------------

Reading the OPT-File                    .... done
Getting information on internals        .... done
Copying old internal coords+grads       .... done
Making the new internal coordinates     .... (new redundants).... done
Validating the new internal coordinates .... (new redundants).... done
Calculating the B-matrix                .... done
Calculating the G,G- and P matrices     .... done
Transforming gradient to internals      .... done
Projecting the internal gradient        .... done
Number of atoms                         ....  12
Number of internal coordinates          ....  50
Current Energy                          ....  -338.489560377 Eh
Current gradient norm                   ....     0.073450973 Eh/bohr
Maximum allowed component of the step   ....  0.300
Current trust radius                    ....  0.300
Evaluating the initial hessian          ....  (Almloef) done
Projecting the Hessian                  .... done
Forming the augmented Hessian           .... done
Diagonalizing the augmented Hessian     .... done
Last element of RFO vector              ....  0.992431395
Lowest eigenvalues of augmented Hessian:
 -0.007082154  0.023104607  0.023508473  0.024961310  0.025032671
Length of the computed step             ....  0.123736867
The final length of the internal step   ....  0.123736867
Converting the step to cartesian space:
 Initial RMS(Int)=    0.0174990355
Transforming coordinates:
 Iter   0:  RMS(Cart)=    0.0322541152 RMS(Int)=    1.9865623279
 Iter   1:  RMS(Cart)=    0.0005170936 RMS(Int)=    0.0003789215
 Iter   2:  RMS(Cart)=    0.0000187249 RMS(Int)=    0.0000083547
 Iter   3:  RMS(Cart)=    0.0000011225 RMS(Int)=    0.0000010053
 Iter   4:  RMS(Cart)=    0.0000004808 RMS(Int)=    0.0000004487
 Iter   5:  RMS(Cart)=    0.0000002568 RMS(Int)=    0.0000002399
 Iter   6:  RMS(Cart)=    0.0000001374 RMS(Int)=    0.0000001283
 Iter   7:  RMS(Cart)=    0.0000000735 RMS(Int)=    0.0000000686
done
Storing new coordinates                 .... done

                                .--------------------.
          ----------------------|Geometry convergence|---------------------
          Item                value                 Tolerance   Converged
          -----------------------------------------------------------------
          RMS gradient        0.00831109            0.00003000      NO
          MAX gradient        0.02155332            0.00010000      NO
          RMS step            0.01749904            0.00060000      NO
          MAX step            0.04983636            0.00100000      NO
          ....................................................
          Max(Bonds)      0.0186      Max(Angles)    2.86
          Max(Dihed)        0.13      Max(Improp)    0.00
          -----------------------------------------------------------------

The optimization has not yet converged - more geometry cycles are needed


    ---------------------------------------------------------------------------
                         Redundant Internal Coordinates
                            (Angstroem and degrees)

        Definition                    Value    dE/dq     Step     New-Value
    ----------------------------------------------------------------------------
     1. B(C   1,C   0)                1.3899 -0.021182  0.0178    1.4078   
     2. B(C   2,C   1)                1.4050  0.011607 -0.0104    1.3946   
     3. B(C   3,C   2)                1.4052 -0.014361  0.0125    1.4178   
     4. B(C   4,C   3)                1.3899  0.007728 -0.0066    1.3834   
     5. B(C   5,C   4)                1.3986 -0.012736  0.0111    1.4097   
     6. B(C   5,C   0)                1.3985 -0.000861  0.0009    1.3994   
     7. B(H   6,C   0)                1.0828 -0.002337  0.0033    1.0861   
     8. B(N   7,C   2)                1.3906  0.002251 -0.0021    1.3885   
     9. B(N   8,N   7)                1.1375  0.014303 -0.0059    1.1316   
    10. B(H   9,C   5)                1.0700 -0.013864  0.0186    1.0886   
    11. B(H  10,C   4)                1.0700 -0.008834  0.0118    1.0818   
    12. B(H  11,C   3)                1.0700 -0.011993  0.0161    1.0861   
    13. A(C   5,C   0,H   6)          120.48  0.009374   -1.37    119.11   
    14. A(C   1,C   0,H   6)          120.60  0.004573   -0.60    120.00   
    15. A(C   1,C   0,C   5)          118.92 -0.013947    1.97    120.89   
    16. A(C   0,C   1,C   2)          116.61  0.020460   -2.69    113.92   
    17. A(C   3,C   2,N   7)          117.29 -0.004939    0.70    117.99   
    18. A(C   1,C   2,N   7)          117.30  0.021553   -2.86    114.44   
    19. A(C   1,C   2,C   3)          125.42 -0.016614    2.15    127.57   
    20. A(C   2,C   3,C   4)          116.60  0.004096   -0.63    115.98   
    21. A(C   4,C   3,H  11)          121.70  0.000044   -0.02    121.68   
    22. A(C   2,C   3,H  11)          121.70 -0.004140    0.64    122.34   
    23. A(C   3,C   4,H  10)          120.54  0.001581   -0.22    120.32   
    24. A(C   3,C   4,C   5)          118.92 -0.002253    0.30    119.22   
    25. A(C   5,C   4,H  10)          120.54  0.000672   -0.08    120.46   
    26. A(C   4,C   5,H   9)          118.24 -0.001973    0.21    118.45   
    27. A(C   0,C   5,H   9)          118.23 -0.006285    0.90    119.12   
    28. A(C   0,C   5,C   4)          123.53  0.008258   -1.11    122.42   
    29. L(C   2,N   7,N   8,C   1, 2) 179.86 -0.000033    0.00    179.87   
    30. L(C   2,N   7,N   8,C   1, 1) 179.99  0.013107   -1.56    178.43   
    31. D(C   2,C   1,C   0,H   6)   -179.95  0.000054   -0.10   -180.05   
    32. D(C   2,C   1,C   0,C   5)      0.04  0.000015   -0.03      0.00   
    33. D(N   7,C   2,C   1,C   0)    179.98 -0.000073    0.13    180.11   
    34. D(C   3,C   2,C   1,C   0)     -0.01 -0.000034    0.06      0.06   
    35. D(C   4,C   3,C   2,N   7)    179.97  0.000047   -0.09    179.88   
    36. D(H  11,C   3,C   2,C   1)    179.96 -0.000006    0.01    179.97   
    37. D(C   4,C   3,C   2,C   1)     -0.04  0.000011   -0.02     -0.06   
    38. D(H  11,C   3,C   2,N   7)     -0.03  0.000031   -0.06     -0.09   
    39. D(H  10,C   4,C   3,H  11)      0.05  0.000018   -0.03      0.02   
    40. D(H  10,C   4,C   3,C   2)   -179.95  0.000002    0.00   -179.95   
    41. D(C   5,C   4,C   3,H  11)   -179.95  0.000041   -0.07   -180.02   
    42. D(C   5,C   4,C   3,C   2)      0.05  0.000025   -0.04      0.01   
    43. D(H   9,C   5,C   0,C   1)    179.98  0.000025   -0.04    179.94   
    44. D(C   4,C   5,C   0,H   6)    179.96 -0.000018    0.03    180.00   
    45. D(C   4,C   5,C   0,C   1)     -0.02  0.000021   -0.03     -0.05   
    46. D(H   9,C   5,C   4,H  10)     -0.02 -0.000016    0.03      0.01   
    47. D(H   9,C   5,C   4,C   3)    179.98 -0.000039    0.07    180.05   
    48. D(C   0,C   5,C   4,H  10)    179.98 -0.000013    0.03    180.00   
    49. D(C   0,C   5,C   4,C   3)     -0.02 -0.000035    0.07      0.05   
    50. D(H   9,C   5,C   0,H   6)     -0.04 -0.000014    0.03     -0.01   
    ----------------------------------------------------------------------------

         *************************************************************
         *                GEOMETRY OPTIMIZATION CYCLE   2            *
         *************************************************************
---------------------------------
CARTESIAN COORDINATES (ANGSTROEM)
---------------------------------
  C     -1.907387    0.091506   -1.079552
  C     -0.506210    0.007874   -0.972279
  C      0.036114    0.833942    0.011911
  C     -0.657426    1.713628    0.880988
  C     -2.031980    1.754961    0.730796
  C     -2.641844    0.944114   -0.247779
  H     -2.432546   -0.509958   -1.815782
  N      1.418113    0.761579    0.125142
  N      2.544905    0.682856    0.193554
  H     -3.724240    0.987009   -0.355966
  H     -2.630576    2.402846    1.357088
  H     -0.146023    2.321444    1.621680

----------------------------
CARTESIAN COORDINATES (A.U.)
----------------------------
  NO LB      ZA    FRAG    MASS        X           Y           Z
   0 C     6.0000    0    12.011         -3.604439559877088          0.172922134682905         -2.040057850670646
   1 C     6.0000    0    12.011         -0.956598341073811          0.014879902107773         -1.837341869871420
   2 C     6.0000    0    12.011          0.068245885826394          1.575921685855285          0.022507954301987
   3 C     6.0000    0    12.011         -1.242355072329045          3.238287177882722          1.664826535298575
   4 C     6.0000    0    12.011         -3.839886312348384          3.316394775914499          1.381004724378827
   5 C     6.0000    0    12.011         -4.992360888413911          1.784117722372743         -0.468234121045610
   6 H     1.0000    0     1.008         -4.596845472298964         -0.963681487408652         -3.431331390035093
   7 N     7.0000    0    14.007          2.679844825033679          1.439175171264506          0.236483953143981
   8 N     7.0000    0    14.007          4.809173225765223          1.290410740899200          0.365764001996796
   9 H     1.0000    0     1.008         -7.037793660017674          1.865176074380201         -0.672678209128615
  10 H     1.0000    0     1.008         -4.971068164074731          4.540720734073559          2.564524067577860
  11 H     1.0000    0     1.008         -0.275943090792629          4.386893220732127          3.064531019091137

--------------------------------
INTERNAL COORDINATES (ANGSTROEM)
--------------------------------
 C      0   0   0   0.000000     0.000     0.000
 C      1   0   0   1.407764     0.000     0.000
 C      2   1   0   1.394680   113.930     0.000
 C      3   2   1   1.417794   127.578     0.056
 C      4   3   2   1.383353   115.979   359.937
 C      1   2   3   1.399362   120.884     0.000
 H      1   2   3   1.086088   120.002   179.954
 N      3   2   1   1.388516   114.438   180.112
 N      8   3   2   1.131609   178.431     2.749
 H      6   1   2   1.088635   119.129   179.940
 H      5   4   3   1.081810   120.321   180.053
 H      4   3   2   1.086093   122.340   179.970

---------------------------
INTERNAL COORDINATES (A.U.)
---------------------------
 C      0   0   0   0.000000     0.000     0.000
 C      1   0   0   2.660288     0.000     0.000
 C      2   1   0   2.635564   113.930     0.000
 C      3   2   1   2.679243   127.578     0.056
 C      4   3   2   2.614158   115.979   359.937
 C      1   2   3   2.644410   120.884     0.000
 H      1   2   3   2.052408   120.002   179.954
 N      3   2   1   2.623916   114.438   180.112
 N      8   3   2   2.138430   178.431     2.749
 H      6   1   2   2.057222   119.129   179.940
 H      5   4   3   2.044325   120.321   180.053
 H      4   3   2   2.052418   122.340   179.970


Diagonalization of the overlap matrix:
Smallest eigenvalue                        ... 2.564e-03
Time for diagonalization                   ...    0.001 sec
Threshold for overlap eigenvalues          ... 1.000e-08
Number of eigenvalues below threshold      ... 0
Time for construction of square roots      ...    0.000 sec
Total time needed                          ...    0.002 sec

-------------------
DFT GRID GENERATION
-------------------

General Integration Accuracy     IntAcc      ...  4.340
Radial Grid Type                 RadialGrid  ... Gauss-Chebyshev
Angular Grid (max. acc.)         AngularGrid ... Lebedev-110
Angular grid pruning method      GridPruning ... 3 (G Style)
Weight generation scheme         WeightScheme... Becke
Basis function cutoff            BFCut       ...    1.0000e-11
Integration weight cutoff        WCut        ...    1.0000e-14
Grids for H and He will be reduced by one unit

# of grid points (after initial pruning)     ...  16516 (   0.0 sec)
# of grid points (after weights+screening)   ...  15527 (   0.0 sec)
nearest neighbour list constructed           ...    0.0 sec
Grid point re-assignment to atoms done       ...    0.0 sec
Grid point division into batches done        ...    0.0 sec
Reduced shell lists constructed in    0.1 sec

Total number of grid points                  ...    15527
Total number of batches                      ...      250
Average number of points per batch           ...       62
Average number of grid points per atom       ...     1294
Average number of shells per batch           ...    32.17 (67.02%)
Average number of basis functions per batch  ...    57.49 (71.86%)
Average number of large shells per batch     ...    25.50 (79.27%)
Average number of large basis fcns per batch ...    46.29 (80.51%)
Maximum spatial batch extension              ...  20.91, 21.33, 20.34 au
Average spatial batch extension              ...   3.56,  4.73,  4.63 au

Time for grid setup =    0.144 sec

--------------
SCF ITERATIONS
--------------
ITER       Energy         Delta-E        Max-DP      RMS-DP      [F,P]     Damp
               ***  Starting incremental Fock matrix formation  ***
  0   -338.4919028216   0.000000000000 0.00716815  0.00044307  0.0247975 0.7000
                      *** Initiating the SOSCF procedure ***
                      *** Re-Reading the Fockian *** 
                      *** Removing any level shift *** 
ITER      Energy       Delta-E        Grad      Rot      Max-DP    RMS-DP
  1   -338.49270318  -0.0008003543  0.002472  0.002472  0.026431  0.001338
               *** Restarting incremental Fock matrix formation ***
  2   -338.49475089  -0.0020477120  0.001927  0.008720  0.010549  0.000527
  3   -338.49473527   0.0000156174  0.002411  0.004465  0.004361  0.000300
  4   -338.49484224  -0.0001069703  0.000529  0.002166  0.004349  0.000167
  5   -338.49483450   0.0000077389  0.000883  0.001579  0.002619  0.000108
  6   -338.49484812  -0.0000136171  0.000127  0.000369  0.000690  0.000036
  7   -338.49484748   0.0000006401  0.000201  0.000315  0.000413  0.000023
  8   -338.49484841  -0.0000009303  0.000063  0.000259  0.000204  0.000012
  9   -338.49484820   0.0000002043  0.000166  0.000177  0.000141  0.000009
 10   -338.49484844  -0.0000002385  0.000005  0.000017  0.000022  0.000001
 11   -338.49484844  -0.0000000003  0.000004  0.000005  0.000012  0.000001
                  ***Gradient check signals convergence***
              ***Rediagonalizing the Fockian in SOSCF/NRSCF***

               *****************************************************
               *                     SUCCESS                       *
               *           SCF CONVERGED AFTER  12 CYCLES          *
               *****************************************************

Setting up the final grid:

General Integration Accuracy     IntAcc      ...  4.670
Radial Grid Type                 RadialGrid  ... Gauss-Chebyshev
Angular Grid (max. acc.)         AngularGrid ... Lebedev-302
Angular grid pruning method      GridPruning ... 3 (G Style)
Weight generation scheme         WeightScheme... Becke
Basis function cutoff            BFCut       ...    1.0000e-11
Integration weight cutoff        WCut        ...    1.0000e-14
Grids for H and He will be reduced by one unit

# of grid points (after initial pruning)     ...  63272 (   0.0 sec)
# of grid points (after weights+screening)   ...  58988 (   0.1 sec)
nearest neighbour list constructed           ...    0.0 sec
Grid point re-assignment to atoms done       ...    0.0 sec
Grid point division into batches done        ...    0.2 sec
Reduced shell lists constructed in    0.5 sec

Total number of grid points                  ...    58988
Total number of batches                      ...      927
Average number of points per batch           ...       63
Average number of grid points per atom       ...     4916
Average number of shells per batch           ...    29.07 (60.56%)
Average number of basis functions per batch  ...    52.15 (65.19%)
Average number of large shells per batch     ...    22.63 (77.86%)
Average number of large basis fcns per batch ...    41.29 (79.17%)
Maximum spatial batch extension              ...  18.62, 20.30, 19.85 au
Average spatial batch extension              ...   2.58,  3.00,  2.98 au

Final grid set up in    0.7 sec
Final integration                            ... done (   0.4 sec)
Change in XC energy                          ...     0.000400541
Integrated number of electrons               ...    53.999963597
Previous integrated no of electrons          ...    54.007527169
Total Energy       :         -338.49444790 Eh           -9210.90220 eV
  Last Energy change         ...   -3.8142e-10  Tolerance :   1.0000e-08
  Last MAX-Density change    ...    9.1971e-06  Tolerance :   1.0000e-07
             **** THE GBW FILE WAS UPDATED (s-C6H4-N2-B3LYPG-3-21G.gbw) ****
             **** DENSITY FILE WAS UPDATED (s-C6H4-N2-B3LYPG-3-21G.scfp.tmp) ****
             **** ENERGY FILE WAS UPDATED (s-C6H4-N2-B3LYPG-3-21G.en.tmp) ****
Total SCF time: 0 days 0 hours 0 min 7 sec 

-------------------------   --------------------
FINAL SINGLE POINT ENERGY      -338.494447903407
-------------------------   --------------------

------------------------------------------------------------------------------
                         ORCA SCF GRADIENT CALCULATION
------------------------------------------------------------------------------

Gradient of the Kohn-Sham DFT energy:
Kohn-Sham wavefunction type      ... RKS
Hartree-Fock exchange scaling    ...    0.200
Number of operators              ...    1
Number of atoms                  ...   12
Basis set dimensions             ...   80
Integral neglect threshold       ... 2.5e-11
Integral primitive cutoff        ... 2.5e-12

Nuclear repulsion gradient       ... done
One Electron Gradient            ... done
Pre-screening matrix             ... done
Starting the two electron gradient:
Two electron gradient done
Exchange-correlation gradient    ... done

------------------
CARTESIAN GRADIENT
------------------

   1   C   :    0.006902458   -0.009477350   -0.009426552
   2   C   :   -0.020995842    0.008527337    0.006389041
   3   C   :    0.013284734   -0.000949878    0.000765880
   4   C   :    0.002572595   -0.004646701   -0.004737313
   5   C   :   -0.009707292   -0.000759285   -0.002196180
   6   C   :    0.008157645    0.007834517    0.009772116
   7   H   :    0.001022170   -0.000201991   -0.000041651
   8   N   :   -0.003903209   -0.002182789   -0.002829515
   9   N   :    0.001965143    0.003055964    0.003527175
  10   H   :   -0.000152913   -0.000753632   -0.000784344
  11   H   :    0.000386473   -0.000299526   -0.000312620
  12   H   :    0.000468038   -0.000146666   -0.000126037

Norm of the cartesian gradient     ...    0.037267906
RMS gradient                       ...    0.006211318
MAX gradient                       ...    0.020995842

-------
TIMINGS
-------

Total SCF gradient time            ...        3.549 sec

One electron gradient       ....       0.031 sec  (  0.9%)
Prescreening matrices       ....       0.006 sec  (  0.2%)
Two electron gradient       ....       1.117 sec  ( 31.5%)
XC gradient                 ....       2.307 sec  ( 65.0%)
------------------------------------------------------------------------------
                         ORCA GEOMETRY RELAXATION STEP
------------------------------------------------------------------------------

Reading the OPT-File                    .... done
Getting information on internals        .... done
Copying old internal coords+grads       .... done
Making the new internal coordinates     .... (new redundants).... done
Validating the new internal coordinates .... (new redundants).... done
Calculating the B-matrix                .... done
Calculating the G,G- and P matrices     .... done
Transforming gradient to internals      .... done
Projecting the internal gradient        .... done
Number of atoms                         ....  12
Number of internal coordinates          ....  50
Current Energy                          ....  -338.494447903 Eh
Current gradient norm                   ....     0.037267906 Eh/bohr
Maximum allowed component of the step   ....  0.300
Current trust radius                    ....  0.300
Updating the Hessian (BFGS)             .... done
Forming the augmented Hessian           .... done
Diagonalizing the augmented Hessian     .... done
Last element of RFO vector              ....  0.994661897
Lowest eigenvalues of augmented Hessian:
 -0.002671059  0.023105169  0.023508546  0.024961300  0.025032863
Length of the computed step             ....  0.103741532
The final length of the internal step   ....  0.103741532
Converting the step to cartesian space:
 Initial RMS(Int)=    0.0146712681
Transforming coordinates:
 Iter   0:  RMS(Cart)=    0.0281902167 RMS(Int)=    0.0146595684
 Iter   1:  RMS(Cart)=    0.0006130594 RMS(Int)=    0.0004411637
 Iter   2:  RMS(Cart)=    0.0000236283 RMS(Int)=    0.0000106064
 Iter   3:  RMS(Cart)=    0.0000023170 RMS(Int)=    0.0000019875
 Iter   4:  RMS(Cart)=    0.0000010723 RMS(Int)=    0.0000009261
 Iter   5:  RMS(Cart)=    0.0000005764 RMS(Int)=    0.0000004982
 Iter   6:  RMS(Cart)=    0.0000003102 RMS(Int)=    0.0000002681
 Iter   7:  RMS(Cart)=    0.0000001670 RMS(Int)=    0.0000001443
 Iter   8:  RMS(Cart)=    0.0000000898 RMS(Int)=    0.0000000777
done
Storing new coordinates                 .... done

                                .--------------------.
          ----------------------|Geometry convergence|---------------------
          Item                value                 Tolerance   Converged
          -----------------------------------------------------------------
          Energy change      -0.00488753            0.00000100      NO
          RMS gradient        0.00370434            0.00003000      NO
          MAX gradient        0.01090173            0.00010000      NO
          RMS step            0.01467127            0.00060000      NO
          MAX step            0.04578358            0.00100000      NO
          ....................................................
          Max(Bonds)      0.0173      Max(Angles)    2.62
          Max(Dihed)        0.06      Max(Improp)    0.00
          -----------------------------------------------------------------

The optimization has not yet converged - more geometry cycles are needed


    ---------------------------------------------------------------------------
                         Redundant Internal Coordinates
                            (Angstroem and degrees)

        Definition                    Value    dE/dq     Step     New-Value
    ----------------------------------------------------------------------------
     1. B(C   1,C   0)                1.4078 -0.010902  0.0173    1.4251   
     2. B(C   2,C   1)                1.3947  0.000541 -0.0020    1.3926   
     3. B(C   3,C   2)                1.4178 -0.003475  0.0065    1.4243   
     4. B(C   4,C   3)                1.3834  0.004233 -0.0067    1.3766   
     5. B(C   5,C   4)                1.4096 -0.006371  0.0104    1.4200   
     6. B(C   5,C   0)                1.3994  0.004127 -0.0057    1.3937   
     7. B(H   6,C   0)                1.0861 -0.000354  0.0012    1.0873   
     8. B(N   7,C   2)                1.3885 -0.001917  0.0027    1.3912   
     9. B(N   8,N   7)                1.1316  0.001958 -0.0021    1.1295   
    10. B(H   9,C   5)                1.0886  0.000200  0.0018    1.0904   
    11. B(H  10,C   4)                1.0818 -0.000575  0.0027    1.0845   
    12. B(H  11,C   3)                1.0861  0.000052  0.0018    1.0879   
    13. A(C   5,C   0,H   6)          119.11  0.004133   -1.16    117.96   
    14. A(C   1,C   0,H   6)          120.00  0.002106   -0.53    119.47   
    15. A(C   1,C   0,C   5)          120.88 -0.006239    1.68    122.57   
    16. A(C   0,C   1,C   2)          113.93  0.010166   -2.49    111.44   
    17. A(C   3,C   2,N   7)          117.98 -0.002689    0.70    118.68   
    18. A(C   1,C   2,N   7)          114.44  0.010380   -2.62    111.81   
    19. A(C   1,C   2,C   3)          127.58 -0.007691    1.93    129.50   
    20. A(C   2,C   3,C   4)          115.98  0.002536   -0.70    115.28   
    21. A(C   4,C   3,H  11)          121.68 -0.000757    0.18    121.86   
    22. A(C   2,C   3,H  11)          122.34 -0.001779    0.52    122.86   
    23. A(C   3,C   4,H  10)          120.32  0.000894   -0.21    120.11   
    24. A(C   3,C   4,C   5)          119.21 -0.001938    0.44    119.66   
    25. A(C   5,C   4,H  10)          120.46  0.001045   -0.23    120.23   
    26. A(C   4,C   5,H   9)          118.46 -0.000466    0.10    118.56   
    27. A(C   0,C   5,H   9)          119.13 -0.002700    0.76    119.89   
    28. A(C   0,C   5,C   4)          122.41  0.003166   -0.86    121.55   
    29. L(C   2,N   7,N   8,C   1, 2) 179.87 -0.000034    0.01    179.87   
    30. L(C   2,N   7,N   8,C   1, 1) 178.43  0.010005   -2.14    176.29   
    31. D(C   2,C   1,C   0,H   6)    179.95  0.000006   -0.02    179.93   
    32. D(C   2,C   1,C   0,C   5)      0.00  0.000002   -0.01     -0.01   
    33. D(N   7,C   2,C   1,C   0)   -179.89  0.000001    0.01   -179.88   
    34. D(C   3,C   2,C   1,C   0)      0.06 -0.000011    0.03      0.09   
    35. D(C   4,C   3,C   2,N   7)    179.88  0.000001    0.01    179.89   
    36. D(H  11,C   3,C   2,C   1)    179.97  0.000011   -0.03    179.94   
    37. D(C   4,C   3,C   2,C   1)     -0.06  0.000007   -0.02     -0.08   
    38. D(H  11,C   3,C   2,N   7)     -0.09  0.000006   -0.01     -0.10   
    39. D(H  10,C   4,C   3,H  11)      0.02  0.000007   -0.02      0.00   
    40. D(H  10,C   4,C   3,C   2)   -179.95  0.000011   -0.03   -179.98   
    41. D(C   5,C   4,C   3,H  11)    179.98  0.000004   -0.00    179.98   
    42. D(C   5,C   4,C   3,C   2)      0.01  0.000009   -0.02     -0.01   
    43. D(H   9,C   5,C   0,C   1)    179.94  0.000009   -0.03    179.91   
    44. D(C   4,C   5,C   0,H   6)    180.00  0.000000   -0.01    179.99   
    45. D(C   4,C   5,C   0,C   1)     -0.05  0.000003   -0.02     -0.07   
    46. D(H   9,C   5,C   4,H  10)      0.01 -0.000017    0.06      0.07   
    47. D(H   9,C   5,C   4,C   3)   -179.95 -0.000014    0.04   -179.91   
    48. D(C   0,C   5,C   4,H  10)   -180.00 -0.000011    0.04   -179.95   
    49. D(C   0,C   5,C   4,C   3)      0.04 -0.000008    0.03      0.07   
    50. D(H   9,C   5,C   0,H   6)     -0.01  0.000006   -0.02     -0.03   
    ----------------------------------------------------------------------------

         *************************************************************
         *                GEOMETRY OPTIMIZATION CYCLE   3            *
         *************************************************************
---------------------------------
CARTESIAN COORDINATES (ANGSTROEM)
---------------------------------
  C     -1.889993    0.098337   -1.069335
  C     -0.471389    0.003698   -0.971409
  C      0.027965    0.843490    0.021114
  C     -0.667591    1.727649    0.894813
  C     -2.034396    1.758198    0.734117
  C     -2.643837    0.939654   -0.253140
  H     -2.416698   -0.503326   -1.806091
  N      1.412972    0.758786    0.121173
  N      2.536129    0.642021    0.147208
  H     -3.727666    0.978861   -0.366457
  H     -2.641450    2.404669    1.358397
  H     -0.163146    2.339765    1.639411

----------------------------
CARTESIAN COORDINATES (A.U.)
----------------------------
  NO LB      ZA    FRAG    MASS        X           Y           Z
   0 C     6.0000    0    12.011         -3.571569320676780          0.185829325792250         -2.020751189480099
   1 C     6.0000    0    12.011         -0.890796833761664          0.006989138913108         -1.835696064558965
   2 C     6.0000    0    12.011          0.052845497446791          1.593964359048496          0.039899125676172
   3 C     6.0000    0    12.011         -1.261564036862548          3.264783313659998          1.690951705977110
   4 C     6.0000    0    12.011         -3.844451487835258          3.322512602878422          1.387279459850167
   5 C     6.0000    0    12.011         -4.996127366830641          1.775687927790777         -0.478364354919956
   6 H     1.0000    0     1.008         -4.566896875953060         -0.951148507982566         -3.413017387894796
   7 N     7.0000    0    14.007          2.670129470028651          1.433898326507217          0.228983141164859
   8 N     7.0000    0    14.007          4.792589995459839          1.213243113733664          0.278182493855594
   9 H     1.0000    0     1.008         -7.044267674872277          1.849778452797562         -0.692503468092202
  10 H     1.0000    0     1.008         -4.991617641808705          4.544165239284732          2.566998172917394
  11 H     1.0000    0     1.008         -0.308300348935294          4.421514560333207          3.098037180542501

--------------------------------
INTERNAL COORDINATES (ANGSTROEM)
--------------------------------
 C      0   0   0   0.000000     0.000     0.000
 C      1   0   0   1.425125     0.000     0.000
 C      2   1   0   1.392733   111.459     0.000
 C      3   2   1   1.424390   129.519     0.086
 C      4   3   2   1.376558   115.279   359.920
 C      1   2   3   1.393654   122.567     0.000
 H      1   2   3   1.087302   119.473   179.933
 N      3   2   1   1.391198   111.808   180.119
 N      8   3   2   1.129511   176.288     1.194
 H      6   1   2   1.090442   119.899   179.912
 H      5   4   3   1.084511   120.120   180.022
 H      4   3   2   1.087923   122.864   179.939

---------------------------
INTERNAL COORDINATES (A.U.)
---------------------------
 C      0   0   0   0.000000     0.000     0.000
 C      1   0   0   2.693097     0.000     0.000
 C      2   1   0   2.631883   111.459     0.000
 C      3   2   1   2.691706   129.519     0.086
 C      4   3   2   2.601318   115.279   359.920
 C      1   2   3   2.633624   122.567     0.000
 H      1   2   3   2.054702   119.473   179.933
 N      3   2   1   2.628983   111.808   180.119
 N      8   3   2   2.134467   176.288     1.194
 H      6   1   2   2.060637   119.899   179.912
 H      5   4   3   2.049430   120.120   180.022
 H      4   3   2   2.055877   122.864   179.939


Diagonalization of the overlap matrix:
Smallest eigenvalue                        ... 2.747e-03
Time for diagonalization                   ...    0.002 sec
Threshold for overlap eigenvalues          ... 1.000e-08
Number of eigenvalues below threshold      ... 0
Time for construction of square roots      ...    0.001 sec
Total time needed                          ...    0.003 sec

-------------------
DFT GRID GENERATION
-------------------

General Integration Accuracy     IntAcc      ...  4.340
Radial Grid Type                 RadialGrid  ... Gauss-Chebyshev
Angular Grid (max. acc.)         AngularGrid ... Lebedev-110
Angular grid pruning method      GridPruning ... 3 (G Style)
Weight generation scheme         WeightScheme... Becke
Basis function cutoff            BFCut       ...    1.0000e-11
Integration weight cutoff        WCut        ...    1.0000e-14
Grids for H and He will be reduced by one unit

# of grid points (after initial pruning)     ...  16516 (   0.0 sec)
# of grid points (after weights+screening)   ...  15528 (   0.0 sec)
nearest neighbour list constructed           ...    0.0 sec
Grid point re-assignment to atoms done       ...    0.0 sec
Grid point division into batches done        ...    0.0 sec
Reduced shell lists constructed in    0.1 sec

Total number of grid points                  ...    15528
Total number of batches                      ...      251
Average number of points per batch           ...       61
Average number of grid points per atom       ...     1294
Average number of shells per batch           ...    32.10 (66.87%)
Average number of basis functions per batch  ...    57.42 (71.77%)
Average number of large shells per batch     ...    25.44 (79.27%)
Average number of large basis fcns per batch ...    46.21 (80.49%)
Maximum spatial batch extension              ...  20.47, 24.01, 20.36 au
Average spatial batch extension              ...   3.52,  4.73,  4.64 au

Time for grid setup =    0.154 sec

--------------
SCF ITERATIONS
--------------
ITER       Energy         Delta-E        Max-DP      RMS-DP      [F,P]     Damp
               ***  Starting incremental Fock matrix formation  ***
  0   -338.4929419795   0.000000000000 0.00667162  0.00040446  0.0296049 0.7000
                      *** Initiating the SOSCF procedure ***
                      *** Re-Reading the Fockian *** 
                      *** Removing any level shift *** 
ITER      Energy       Delta-E        Grad      Rot      Max-DP    RMS-DP
  1   -338.49385107  -0.0009090926  0.003132  0.003132  0.025856  0.001274
               *** Restarting incremental Fock matrix formation ***
  2   -338.49627039  -0.0024193182  0.002413  0.004295  0.010775  0.000410
  3   -338.49630964  -0.0000392543  0.001396  0.005178  0.004077  0.000271
  4   -338.49633381  -0.0000241613  0.000854  0.003024  0.002307  0.000173
  5   -338.49634448  -0.0000106707  0.000784  0.001736  0.003606  0.000119
  6   -338.49634594  -0.0000014631  0.000875  0.001019  0.001370  0.000090
  7   -338.49635125  -0.0000053112  0.000325  0.000785  0.001846  0.000067
  8   -338.49635206  -0.0000008051  0.000318  0.000578  0.001471  0.000043
  9   -338.49635343  -0.0000013709  0.000062  0.000171  0.000305  0.000013
 10   -338.49635338   0.0000000454  0.000075  0.000098  0.000142  0.000008
 11   -338.49635350  -0.0000001204  0.000008  0.000025  0.000055  0.000002
 12   -338.49635350   0.0000000004  0.000008  0.000017  0.000022  0.000001
                  ***Gradient check signals convergence***
              ***Rediagonalizing the Fockian in SOSCF/NRSCF***

               *****************************************************
               *                     SUCCESS                       *
               *           SCF CONVERGED AFTER  13 CYCLES          *
               *****************************************************

Setting up the final grid:

General Integration Accuracy     IntAcc      ...  4.670
Radial Grid Type                 RadialGrid  ... Gauss-Chebyshev
Angular Grid (max. acc.)         AngularGrid ... Lebedev-302
Angular grid pruning method      GridPruning ... 3 (G Style)
Weight generation scheme         WeightScheme... Becke
Basis function cutoff            BFCut       ...    1.0000e-11
Integration weight cutoff        WCut        ...    1.0000e-14
Grids for H and He will be reduced by one unit

# of grid points (after initial pruning)     ...  63272 (   0.0 sec)
# of grid points (after weights+screening)   ...  58999 (   0.1 sec)
nearest neighbour list constructed           ...    0.0 sec
Grid point re-assignment to atoms done       ...    0.0 sec
Grid point division into batches done        ...    0.2 sec
Reduced shell lists constructed in    0.5 sec

Total number of grid points                  ...    58999
Total number of batches                      ...      928
Average number of points per batch           ...       63
Average number of grid points per atom       ...     4917
Average number of shells per batch           ...    29.08 (60.59%)
Average number of basis functions per batch  ...    52.16 (65.20%)
Average number of large shells per batch     ...    22.65 (77.87%)
Average number of large basis fcns per batch ...    41.28 (79.14%)
Maximum spatial batch extension              ...  18.69, 20.31, 19.40 au
Average spatial batch extension              ...   2.55,  2.99,  2.97 au

Final grid set up in    0.7 sec
Final integration                            ... done (   0.4 sec)
Change in XC energy                          ...     0.000375520
Integrated number of electrons               ...    53.999962588
Previous integrated no of electrons          ...    54.007182905
Total Energy       :         -338.49597798 Eh           -9210.94384 eV
  Last Energy change         ...   -2.0949e-09  Tolerance :   1.0000e-08
  Last MAX-Density change    ...    8.7576e-06  Tolerance :   1.0000e-07
             **** THE GBW FILE WAS UPDATED (s-C6H4-N2-B3LYPG-3-21G.gbw) ****
             **** DENSITY FILE WAS UPDATED (s-C6H4-N2-B3LYPG-3-21G.scfp.tmp) ****
             **** ENERGY FILE WAS UPDATED (s-C6H4-N2-B3LYPG-3-21G.en.tmp) ****
Total SCF time: 0 days 0 hours 0 min 8 sec 

-------------------------   --------------------
FINAL SINGLE POINT ENERGY      -338.495977983263
-------------------------   --------------------

------------------------------------------------------------------------------
                         ORCA SCF GRADIENT CALCULATION
------------------------------------------------------------------------------

Gradient of the Kohn-Sham DFT energy:
Kohn-Sham wavefunction type      ... RKS
Hartree-Fock exchange scaling    ...    0.200
Number of operators              ...    1
Number of atoms                  ...   12
Basis set dimensions             ...   80
Integral neglect threshold       ... 2.5e-11
Integral primitive cutoff        ... 2.5e-12

Nuclear repulsion gradient       ... done
One Electron Gradient            ... done
Pre-screening matrix             ... done
Starting the two electron gradient:
Two electron gradient done
Exchange-correlation gradient    ... done

------------------
CARTESIAN GRADIENT
------------------

   1   C   :    0.004946452   -0.002508142   -0.002028251
   2   C   :   -0.002011703    0.003301497    0.003365758
   3   C   :    0.003987313   -0.003054003   -0.002907715
   4   C   :   -0.001827098   -0.000211748   -0.000499987
   5   C   :   -0.000090104   -0.000857366   -0.000944144
   6   C   :    0.000966309    0.002406826    0.002790878
   7   H   :   -0.000503041    0.000136037    0.000106731
   8   N   :   -0.001499543   -0.003105050   -0.003515802
   9   N   :   -0.002126493    0.002082522    0.001910632
  10   H   :   -0.002125411   -0.000204066   -0.000497372
  11   H   :   -0.000175098    0.000736325    0.000779689
  12   H   :    0.000458417    0.001277168    0.001439582

Norm of the cartesian gradient     ...    0.012710422
RMS gradient                       ...    0.002118404
MAX gradient                       ...    0.004946452

-------
TIMINGS
-------

Total SCF gradient time            ...        3.511 sec

[...]
units of energy

Electronic entropy                ...      0.00000000 Eh      0.00 kcal/mol
Vibrational entropy               ...      0.01690982 Eh     10.61 kcal/mol
Rotational entropy                ...      0.02030288 Eh     12.74 kcal/mol
Translational entropy             ...      0.03176827 Eh     19.93 kcal/mol
-----------------------------------------------------------------------
Final entropy term                ...      0.06898097 Eh     43.29 kcal/mol


CAUTION: The rotational entropy is not quite correctly treated here
         because it includes a symmetry number that is not yet correctly
         implemented in ORCA!
For a nonlinear molecule the correct rotational entropy is:
    S(rot) = R*(ln(qrot/sn)+1.5)
    R    = 8.31441 J/mol/K = 1.987191683e-3 kcal/mol/K
    qrot = 513285.0940216
    sn is the rotational symmetry number. We have assumed 3 here
       if it is different for your molecule then you should correct
       the printed rotational entropy by manually evaluating the equation
       as given above

For convenience we print out the resulting values for sn=1 - 12:
 sn= 1  qrot/sn=  513285.0940 T*S(rot)=    13.77 kcal/mol T*S(tot)=    44.32 kcal/mol
 sn= 2  qrot/sn=  256642.5470 T*S(rot)=    13.12 kcal/mol T*S(tot)=    43.67 kcal/mol
 sn= 3  qrot/sn=  171095.0313 T*S(rot)=    12.74 kcal/mol T*S(tot)=    43.29 kcal/mol
 sn= 4  qrot/sn=  128321.2735 T*S(rot)=    12.47 kcal/mol T*S(tot)=    43.02 kcal/mol
 sn= 5  qrot/sn=  102657.0188 T*S(rot)=    12.26 kcal/mol T*S(tot)=    42.81 kcal/mol
 sn= 6  qrot/sn=   85547.5157 T*S(rot)=    12.09 kcal/mol T*S(tot)=    42.63 kcal/mol
 sn= 7  qrot/sn=   73326.4420 T*S(rot)=    11.94 kcal/mol T*S(tot)=    42.49 kcal/mol
 sn= 8  qrot/sn=   64160.6368 T*S(rot)=    11.82 kcal/mol T*S(tot)=    42.36 kcal/mol
 sn= 9  qrot/sn=   57031.6771 T*S(rot)=    11.71 kcal/mol T*S(tot)=    42.25 kcal/mol
 sn=10  qrot/sn=   51328.5094 T*S(rot)=    11.61 kcal/mol T*S(tot)=    42.15 kcal/mol
 sn=11  qrot/sn=   46662.2813 T*S(rot)=    11.52 kcal/mol T*S(tot)=    42.06 kcal/mol
 sn=12  qrot/sn=   42773.7578 T*S(rot)=    11.44 kcal/mol T*S(tot)=    41.98 kcal/mol


-------------------
GIBBS FREE ENTHALPY
-------------------

The Gibbs free enthalpy is G = H - T*S

Total enthalpy                    ...   -338.39617255 Eh 
Total entropy correction          ...     -0.06898097 Eh    -43.29 kcal/mol
-----------------------------------------------------------------------
Final Gibbs free enthalpy         ...   -338.46515352 Eh

For completeness - the Gibbs free enthalpy minus the electronic energy
G-E(el)                           ...      0.03117851 Eh     19.56 kcal/mol


The first frequency considered to be a vibration is 6
The total number of vibrations considered is 30


--------------------------
THERMOCHEMISTRY AT 523.15K
--------------------------

Temperature         ... 523.15 K
Pressure            ... 1.00 atm
Total Mass          ... 104.11 AMU

Throughout the following assumptions are being made:
  (1) The electronic state is orbitally nondegenerate
  (2) There are no thermally accessible electronically excited states
  (3) Hindered rotations indicated by low frequency modes) are not
      treated as such but are treated as vibrations and this may
      case some error
  (4) All equations used are the standard statistical mechanics
      equations for an ideal gas
  (5) All vibrations are strinctly harmonic


------------
INNER ENERGY
------------

The inner energy is: U= E(el) + E(ZPE) + E(vib) + E(rot) + E(trans)
    E(el)   - is the total energy from the electronic structure calculation
              = E(kin-el) + E(nuc-el) + E(el-el) + E(nuc-nuc)
    E(ZPE)  - the the zero temperature vibrational energy from the frequency calculation
    E(vib)  - the the finite temperature correction to E(ZPE) due to population
              of excietd vibrational states
    E(rot)  - is the rotational thermal energy
    E(trans)- is the translational thermal energy

Summary of contributions to the inner energy U:
Electronic energy                ...   -338.49633203 Eh
Zero point energy                ...      0.08416174 Eh      52.81 kcal/mol
Thermal vibrational correction   ...      0.01239065 Eh       7.78 kcal/mol
Thermal rotational correction    ...      0.00248507 Eh       1.56 kcal/mol
Thermal translational correction ...      0.00248507 Eh       1.56 kcal/mol
-----------------------------------------------------------------------
Total thermal energy                   -338.39480951 Eh


Summary of corrections to the electronic energy:
(perhaps to be used in another calculation)
Total thermal correction                  0.01736078 Eh      10.89 kcal/mol
Non-thermal (ZPE) correction              0.08416174 Eh      52.81 kcal/mol
-----------------------------------------------------------------------
Total correction                          0.10152252 Eh      63.71 kcal/mol


--------
ENTHALPY
--------

The enthalpy is H = U + kB*T
                kB is Boltzmann's constant
Total free energy                 ...   -338.39480951 Eh 
Thermal Enthalpy correction       ...      0.00165676 Eh       1.04 kcal/mol
-----------------------------------------------------------------------
Total Enthalpy                    ...   -338.39315275 Eh


-------
ENTROPY
-------

The entropy contributions are T*S = T*(S(el)+S(vib)+S(rot)+S(trans)
     S(el)   - electronic entropy
     S(vib)  - vibrational entropy
     S(rot)  - rotational entropy
     S(trans)- translational entropy
The entropies will be listed as mutliplied by the temperature to get
units of energy

Electronic entropy                ...      0.00000000 Eh      0.00 kcal/mol
Vibrational entropy               ...      0.02120323 Eh     13.31 kcal/mol
Rotational entropy                ...      0.02269803 Eh     14.24 kcal/mol
Translational entropy             ...      0.03554144 Eh     22.30 kcal/mol
-----------------------------------------------------------------------
Final entropy term                ...      0.07944269 Eh     49.85 kcal/mol


CAUTION: The rotational entropy is not quite correctly treated here
         because it includes a symmetry number that is not yet correctly
         implemented in ORCA!
For a nonlinear molecule the correct rotational entropy is:
    S(rot) = R*(ln(qrot/sn)+1.5)
    R    = 8.31441 J/mol/K = 1.987191683e-3 kcal/mol/K
    qrot = 596760.0342738
    sn is the rotational symmetry number. We have assumed 3 here
       if it is different for your molecule then you should correct
       the printed rotational entropy by manually evaluating the equation
       as given above

For convenience we print out the resulting values for sn=1 - 12:
 sn= 1  qrot/sn=  596760.0343 T*S(rot)=    15.39 kcal/mol T*S(tot)=    50.99 kcal/mol
 sn= 2  qrot/sn=  298380.0171 T*S(rot)=    14.66 kcal/mol T*S(tot)=    50.27 kcal/mol
 sn= 3  qrot/sn=  198920.0114 T*S(rot)=    14.24 kcal/mol T*S(tot)=    49.85 kcal/mol
 sn= 4  qrot/sn=  149190.0086 T*S(rot)=    13.94 kcal/mol T*S(tot)=    49.55 kcal/mol
 sn= 5  qrot/sn=  119352.0069 T*S(rot)=    13.71 kcal/mol T*S(tot)=    49.32 kcal/mol
 sn= 6  qrot/sn=   99460.0057 T*S(rot)=    13.52 kcal/mol T*S(tot)=    49.13 kcal/mol
 sn= 7  qrot/sn=   85251.4335 T*S(rot)=    13.36 kcal/mol T*S(tot)=    48.97 kcal/mol
 sn= 8  qrot/sn=   74595.0043 T*S(rot)=    13.22 kcal/mol T*S(tot)=    48.83 kcal/mol
 sn= 9  qrot/sn=   66306.6705 T*S(rot)=    13.10 kcal/mol T*S(tot)=    48.71 kcal/mol
 sn=10  qrot/sn=   59676.0034 T*S(rot)=    12.99 kcal/mol T*S(tot)=    48.60 kcal/mol
 sn=11  qrot/sn=   54250.9122 T*S(rot)=    12.89 kcal/mol T*S(tot)=    48.50 kcal/mol
 sn=12  qrot/sn=   49730.0029 T*S(rot)=    12.80 kcal/mol T*S(tot)=    48.41 kcal/mol


-------------------
GIBBS FREE ENTHALPY
-------------------

The Gibbs free enthalpy is G = H - T*S

Total enthalpy                    ...   -338.39315275 Eh 
Total entropy correction          ...     -0.07944269 Eh    -49.85 kcal/mol
-----------------------------------------------------------------------
Final Gibbs free enthalpy         ...   -338.47259544 Eh

For completeness - the Gibbs free enthalpy minus the electronic energy
G-E(el)                           ...      0.02373658 Eh     14.89 kcal/mol


The first frequency considered to be a vibration is 6
The total number of vibrations considered is 30


--------------------------
THERMOCHEMISTRY AT 573.15K
--------------------------

Temperature         ... 573.15 K
Pressure            ... 1.00 atm
Total Mass          ... 104.11 AMU

Throughout the following assumptions are being made:
  (1) The electronic state is orbitally nondegenerate
  (2) There are no thermally accessible electronically excited states
  (3) Hindered rotations indicated by low frequency modes) are not
      treated as such but are treated as vibrations and this may
      case some error
  (4) All equations used are the standard statistical mechanics
      equations for an ideal gas
  (5) All vibrations are strinctly harmonic


------------
INNER ENERGY
------------

The inner energy is: U= E(el) + E(ZPE) + E(vib) + E(rot) + E(trans)
    E(el)   - is the total energy from the electronic structure calculation
              = E(kin-el) + E(nuc-el) + E(el-el) + E(nuc-nuc)
    E(ZPE)  - the the zero temperature vibrational energy from the frequency calculation
    E(vib)  - the the finite temperature correction to E(ZPE) due to population
              of excietd vibrational states
    E(rot)  - is the rotational thermal energy
    E(trans)- is the translational thermal energy

Summary of contributions to the inner energy U:
Electronic energy                ...   -338.49633203 Eh
Zero point energy                ...      0.08416174 Eh      52.81 kcal/mol
Thermal vibrational correction   ...      0.01496604 Eh       9.39 kcal/mol
Thermal rotational correction    ...      0.00272258 Eh       1.71 kcal/mol
Thermal translational correction ...      0.00272258 Eh       1.71 kcal/mol
-----------------------------------------------------------------------
Total thermal energy                   -338.39175910 Eh


Summary of corrections to the electronic energy:
(perhaps to be used in another calculation)
Total thermal correction                  0.02041119 Eh      12.81 kcal/mol
Non-thermal (ZPE) correction              0.08416174 Eh      52.81 kcal/mol
-----------------------------------------------------------------------
Total correction                          0.10457293 Eh      65.62 kcal/mol


--------
ENTHALPY
--------

The enthalpy is H = U + kB*T
                kB is Boltzmann's constant
Total free energy                 ...   -338.39175910 Eh 
Thermal Enthalpy correction       ...      0.00181510 Eh       1.14 kcal/mol
-----------------------------------------------------------------------
Total Enthalpy                    ...   -338.38994400 Eh


-------
ENTROPY
-------

The entropy contributions are T*S = T*(S(el)+S(vib)+S(rot)+S(trans)
     S(el)   - electronic entropy
     S(vib)  - vibrational entropy
     S(rot)  - rotational entropy
     S(trans)- translational entropy
The entropies will be listed as mutliplied by the temperature to get
units of energy

Electronic entropy                ...      0.00000000 Eh      0.00 kcal/mol
Vibrational entropy               ...      0.02592294 Eh     16.27 kcal/mol
Rotational entropy                ...      0.02511590 Eh     15.76 kcal/mol
Translational entropy             ...      0.03935250 Eh     24.69 kcal/mol
-----------------------------------------------------------------------
Final entropy term                ...      0.09039134 Eh     56.72 kcal/mol


CAUTION: The rotational entropy is not quite correctly treated here
         because it includes a symmetry number that is not yet correctly
         implemented in ORCA!
For a nonlinear molecule the correct rotational entropy is:
    S(rot) = R*(ln(qrot/sn)+1.5)
    R    = 8.31441 J/mol/K = 1.987191683e-3 kcal/mol/K
    qrot = 684325.6693205
    sn is the rotational symmetry number. We have assumed 3 here
       if it is different for your molecule then you should correct
       the printed rotational entropy by manually evaluating the equation
       as given above

For convenience we print out the resulting values for sn=1 - 12:
 sn= 1  qrot/sn=  684325.6693 T*S(rot)=    17.01 kcal/mol T*S(tot)=    57.97 kcal/mol
 sn= 2  qrot/sn=  342162.8347 T*S(rot)=    16.22 kcal/mol T*S(tot)=    57.18 kcal/mol
 sn= 3  qrot/sn=  228108.5564 T*S(rot)=    15.76 kcal/mol T*S(tot)=    56.72 kcal/mol
 sn= 4  qrot/sn=  171081.4173 T*S(rot)=    15.43 kcal/mol T*S(tot)=    56.39 kcal/mol
 sn= 5  qrot/sn=  136865.1339 T*S(rot)=    15.18 kcal/mol T*S(tot)=    56.14 kcal/mol
 sn= 6  qrot/sn=  114054.2782 T*S(rot)=    14.97 kcal/mol T*S(tot)=    55.93 kcal/mol
 sn= 7  qrot/sn=   97760.8099 T*S(rot)=    14.80 kcal/mol T*S(tot)=    55.76 kcal/mol
 sn= 8  qrot/sn=   85540.7087 T*S(rot)=    14.64 kcal/mol T*S(tot)=    55.60 kcal/mol
 sn= 9  qrot/sn=   76036.1855 T*S(rot)=    14.51 kcal/mol T*S(tot)=    55.47 kcal/mol
 sn=10  qrot/sn=   68432.5669 T*S(rot)=    14.39 kcal/mol T*S(tot)=    55.35 kcal/mol
 sn=11  qrot/sn=   62211.4245 T*S(rot)=    14.28 kcal/mol T*S(tot)=    55.24 kcal/mol
 sn=12  qrot/sn=   57027.1391 T*S(rot)=    14.18 kcal/mol T*S(tot)=    55.14 kcal/mol


-------------------
GIBBS FREE ENTHALPY
-------------------

The Gibbs free enthalpy is G = H - T*S

Total enthalpy                    ...   -338.38994400 Eh 
Total entropy correction          ...     -0.09039134 Eh    -56.72 kcal/mol
-----------------------------------------------------------------------
Final Gibbs free enthalpy         ...   -338.48033534 Eh

For completeness - the Gibbs free enthalpy minus the electronic energy
G-E(el)                           ...      0.01599669 Eh     10.04 kcal/mol


The first frequency considered to be a vibration is 6
The total number of vibrations considered is 30


--------------------------
THERMOCHEMISTRY AT 623.15K
--------------------------

Temperature         ... 623.15 K
Pressure            ... 1.00 atm
Total Mass          ... 104.11 AMU

Throughout the following assumptions are being made:
  (1) The electronic state is orbitally nondegenerate
  (2) There are no thermally accessible electronically excited states
  (3) Hindered rotations indicated by low frequency modes) are not
      treated as such but are treated as vibrations and this may
      case some error
  (4) All equations used are the standard statistical mechanics
      equations for an ideal gas
  (5) All vibrations are strinctly harmonic


------------
INNER ENERGY
------------

The inner energy is: U= E(el) + E(ZPE) + E(vib) + E(rot) + E(trans)
    E(el)   - is the total energy from the electronic structure calculation
              = E(kin-el) + E(nuc-el) + E(el-el) + E(nuc-nuc)
    E(ZPE)  - the the zero temperature vibrational energy from the frequency calculation
    E(vib)  - the the finite temperature correction to E(ZPE) due to population
              of excietd vibrational states
    E(rot)  - is the rotational thermal energy
    E(trans)- is the translational thermal energy

Summary of contributions to the inner energy U:
Electronic energy                ...   -338.49633203 Eh
Zero point energy                ...      0.08416174 Eh      52.81 kcal/mol
Thermal vibrational correction   ...      0.01770983 Eh      11.11 kcal/mol
Thermal rotational correction    ...      0.00296009 Eh       1.86 kcal/mol
Thermal translational correction ...      0.00296009 Eh       1.86 kcal/mol
-----------------------------------------------------------------------
Total thermal energy                   -338.38854029 Eh


Summary of corrections to the electronic energy:
(perhaps to be used in another calculation)
Total thermal correction                  0.02363001 Eh      14.83 kcal/mol
Non-thermal (ZPE) correction              0.08416174 Eh      52.81 kcal/mol
-----------------------------------------------------------------------
Total correction                          0.10779174 Eh      67.64 kcal/mol


--------
ENTHALPY
--------

The enthalpy is H = U + kB*T
                kB is Boltzmann's constant
Total free energy                 ...   -338.38854029 Eh 
Thermal Enthalpy correction       ...      0.00197345 Eh       1.24 kcal/mol
-----------------------------------------------------------------------
Total Enthalpy                    ...   -338.38656684 Eh


-------
ENTROPY
-------

The entropy contributions are T*S = T*(S(el)+S(vib)+S(rot)+S(trans)
     S(el)   - electronic entropy
     S(vib)  - vibrational entropy
     S(rot)  - rotational entropy
     S(trans)- translational entropy
The entropies will be listed as mutliplied by the temperature to get
units of energy

Electronic entropy                ...      0.00000000 Eh      0.00 kcal/mol
Vibrational entropy               ...      0.03104329 Eh     19.48 kcal/mol
Rotational entropy                ...      0.02755452 Eh     17.29 kcal/mol
Translational entropy             ...      0.04319814 Eh     27.11 kcal/mol
-----------------------------------------------------------------------
Final entropy term                ...      0.10179595 Eh     63.88 kcal/mol


CAUTION: The rotational entropy is not quite correctly treated here
         because it includes a symmetry number that is not yet correctly
         implemented in ORCA!
For a nonlinear molecule the correct rotational entropy is:
    S(rot) = R*(ln(qrot/sn)+1.5)
    R    = 8.31441 J/mol/K = 1.987191683e-3 kcal/mol/K
    qrot = 775799.1238197
    sn is the rotational symmetry number. We have assumed 3 here
       if it is different for your molecule then you should correct
       the printed rotational entropy by manually evaluating the equation
       as given above

For convenience we print out the resulting values for sn=1 - 12:
 sn= 1  qrot/sn=  775799.1238 T*S(rot)=    18.65 kcal/mol T*S(tot)=    65.24 kcal/mol
 sn= 2  qrot/sn=  387899.5619 T*S(rot)=    17.79 kcal/mol T*S(tot)=    64.38 kcal/mol
 sn= 3  qrot/sn=  258599.7079 T*S(rot)=    17.29 kcal/mol T*S(tot)=    63.88 kcal/mol
 sn= 4  qrot/sn=  193949.7810 T*S(rot)=    16.93 kcal/mol T*S(tot)=    63.52 kcal/mol
 sn= 5  qrot/sn=  155159.8248 T*S(rot)=    16.66 kcal/mol T*S(tot)=    63.25 kcal/mol
 sn= 6  qrot/sn=  129299.8540 T*S(rot)=    16.43 kcal/mol T*S(tot)=    63.02 kcal/mol
 sn= 7  qrot/sn=  110828.4463 T*S(rot)=    16.24 kcal/mol T*S(tot)=    62.83 kcal/mol
 sn= 8  qrot/sn=   96974.8905 T*S(rot)=    16.08 kcal/mol T*S(tot)=    62.66 kcal/mol
 sn= 9  qrot/sn=   86199.9026 T*S(rot)=    15.93 kcal/mol T*S(tot)=    62.52 kcal/mol
 sn=10  qrot/sn=   77579.9124 T*S(rot)=    15.80 kcal/mol T*S(tot)=    62.39 kcal/mol
 sn=11  qrot/sn=   70527.1931 T*S(rot)=    15.68 kcal/mol T*S(tot)=    62.27 kcal/mol
 sn=12  qrot/sn=   64649.9270 T*S(rot)=    15.57 kcal/mol T*S(tot)=    62.16 kcal/mol


-------------------
GIBBS FREE ENTHALPY
-------------------

The Gibbs free enthalpy is G = H - T*S

Total enthalpy                    ...   -338.38656684 Eh 
Total entropy correction          ...     -0.10179595 Eh    -63.88 kcal/mol
-----------------------------------------------------------------------
Final Gibbs free enthalpy         ...   -338.48836278 Eh

For completeness - the Gibbs free enthalpy minus the electronic energy
G-E(el)                           ...      0.00796924 Eh      5.00 kcal/mol


Total Time for Numerical Frequencies  :       694.946 sec

Timings for individual modules:

Sum of individual times         ...      141.929 sec (=   2.365 min)
GTO integral calculation        ...        1.893 sec (=   0.032 min)   1.3 %
SCF iterations                  ...       93.068 sec (=   1.551 min)  65.6 %
SCF Gradient evaluation         ...       46.518 sec (=   0.775 min)  32.8 %
Geometry relaxation             ...        0.450 sec (=   0.007 min)   0.3 %
                             ****ORCA TERMINATED NORMALLY****
TOTAL RUN TIME: 0 days 0 hours 13 minutes 51 seconds 252 msec
