
                                 *****************
                                 * O   R   C   A *
                                 *****************

           --- An Ab Initio, DFT and Semiempirical electronic structure package ---

                  #######################################################
                  #                        -***-                        #
                  #  Department of molecular theory and spectroscopy    #
                  #              Directorship: Frank Neese              #
                  # Max Planck Institute for Chemical Energy Conversion #
                  #                  D-45470 Muelheim/Ruhr              #
                  #                       Germany                       #
                  #                                                     #
                  #                  All rights reserved                #
                  #                        -***-                        #
                  #######################################################


                         Program Version 3.0.2 -  RELEASE  -


 With contributions from (in alphabetic order):
   Ute Becker             : Parallelization
   Dmytro Bykov           : SCF Hessian
   Dmitry Ganyushin       : Spin-Orbit,Spin-Spin,Magnetic field MRCI
   Andreas Hansen         : Spin unrestricted coupled pair/coupled cluster methods
   Dimitrios Liakos       : Extrapolation schemes; parallel MDCI
   Robert Izsak           : Overlap fitted RIJCOSX, COSX-SCS-MP3
   Christian Kollmar      : KDIIS, OOCD, Brueckner-CCSD(T), CCSD density
   Simone Kossmann        : Meta GGA functionals, TD-DFT gradient, OOMP2, MP2 Hessian
   Taras Petrenko         : DFT Hessian,TD-DFT gradient, ASA and ECA modules, normal mode analysis, Resonance Raman, ABS, FL, XAS/XES, NRVS
   Christoph Reimann      : Effective Core Potentials
   Michael Roemelt        : Restricted open shell CIS
   Christoph Riplinger    : Improved optimizer, TS searches, QM/MM, DLPNO-CCSD
   Barbara Sandhoefer     : DKH picture change effects
   Igor Schapiro          : Molecular dynamics
   Kantharuban Sivalingam : CASSCF convergence, NEVPT2
   Boris Wezisla          : Elementary symmetry handling
   Frank Wennmohs         : Technical directorship


 We gratefully acknowledge several colleagues who have allowed us to
 interface, adapt or use parts of their codes:
   Stefan Grimme, W. Hujo, H. Kruse, T. Risthaus : VdW corrections, initial TS optimization,
                                                   DFT functionals, gCP
   Ed Valeev                                     : LibInt (2-el integral package), F12 methods
   Garnet Chan, S. Sharma, R. Olivares           : DMRG
   Ulf Ekstrom                                   : XCFun DFT Library
   Mihaly Kallay                                 : mrcc  (arbitrary order and MRCC methods)
   Andreas Klamt, Michael Diedenhofen            : otool_cosmo (COSMO solvation model)
   Frank Weinhold                                : gennbo (NPA and NBO analysis)
   Christopher J. Cramer and Donald G. Truhlar   : smd solvation model


 Your calculation uses the libint2 library for the computation of 2-el integrals
 For citations please refer to: http://libint.valeyev.net

 This ORCA versions uses:
   CBLAS   interface :  Fast vector & matrix operations
   LAPACKE interface :  Fast linear algebra routines
   SCALAPACK package :  Parallel linear algebra routines


Your calculation utilizes the basis: 3-21G
Cite in your paper:
H - Ne: J.S. Binkley, J.A. Pople, W.J. Hehre, J. Am. Chem. Soc. 102 939 (1980)
Na - Ar: M.S. Gordon, J.S. Binkley, J.A. Pople, W.J. Pietro and W.J. Hehre,
         J. Am. Chem. Soc. 104, 2797 (1983).
 K - Ca: K.D. Dobbs, W.J. Hehre, J. Comput. Chem. 7, 359 (1986).
Ga - Kr: K.D. Dobbs, W.J. Hehre, J. Comput. Chem. 7, 359 (1986).
Sc - Zn: K.D. Dobbs, W.J. Hehre, J. Comput. Chem. 8, 861 (1987).
Y - Cd: K.D. Dobbs, W.J. Hehre, J. Comput. Chem. 8, 880 (1987).
Cs     : A 3-21G quality set derived from the Huzinage MIDI basis sets.
        E.D. Glendening and D. Feller, J. Phys. Chem. (to be published)

================================================================================
                                        WARNINGS
                       Please study these warnings very carefully!
================================================================================
Now building the actual basis set

WARNING: your system is open-shell and RHF/RKS was chosen
  ===> : WILL SWITCH to UHF/UKS


WARNING: Geometry Optimization
  ===> : Switching off AutoStart
         For restart on a previous wavefunction, please use MOREAD


INFO   : the flag for use of LIBINT has been found!

================================================================================
                                       INPUT FILE
================================================================================
NAME = t-C6H4-N2-B3LYPG-3-21G.orc
|  1> ! B3LYP/G 3-21G TightOpt NumFreq
|  2> %geom MaxIter 1000 end
|  3> %scf MaxIter 1000 end
|  4> %freq Temp 298.15, 323.15, 373.15, 423.15, 473.15, 523.15, 573.15, 623.15 end
|  5> * xyz 0 3
|  6> C          -1.93230         0.08680        -1.08920
|  7> C          -0.54910         0.01550        -0.97270
|  8> C           0.04280         0.83030         0.00700
|  9> C          -0.64710         1.70110         0.86750
| 10> C          -2.02890         1.75070         0.72590
| 11> C          -2.63870         0.94750        -0.24310
| 12> H          -2.45540        -0.51400        -1.82260
| 13> N           1.42610         0.76990         0.13610
| 14> N           2.55780         0.72140         0.24060
| 15> H          -3.70310         0.99400        -0.34250
| 16> H          -2.61650         2.39290         1.34810
| 17> H          -0.13470         2.29570         1.59470
| 18> 
| 19> *
| 20> 
| 21>                          ****END OF INPUT****
================================================================================

                       *****************************
                       * Geometry Optimization Run *
                       *****************************

Geometry optimization settings:
Update method            Update   .... BFGS
Choice of coordinates    CoordSys .... Redundant Internals
Initial Hessian          InHess   .... Almoef's Model

Convergence Tolerances:
Energy Change            TolE     ....  1.0000e-06 Eh
Max. Gradient            TolMAXG  ....  1.0000e-04 Eh/bohr
RMS Gradient             TolRMSG  ....  3.0000e-05 Eh/bohr
Max. Displacement        TolMAXD  ....  1.0000e-03 bohr
RMS Displacement         TolRMSD  ....  6.0000e-04 bohr

------------------------------------------------------------------------------
                        ORCA OPTIMIZATION COORDINATE SETUP
------------------------------------------------------------------------------

The optimization will be done in new redundant internal coordinates
Making redundant internal coordinates   ...  (new redundants) done
Evaluating the initial hessian          ...  (Almloef) done
Evaluating the coordinates              ...  done
Calculating the B-matrix                .... done
Calculating the G-matrix                .... done
Diagonalizing the G-matrix              .... done
The first mode is                       ....   20
The number of degrees of freedom        ....   30

    -----------------------------------------------------------------
                    Redundant Internal Coordinates


    -----------------------------------------------------------------
         Definition                    Initial Value    Approx d2E/dq
    -----------------------------------------------------------------
      1. B(C   1,C   0)                  1.3899         0.624963   
      2. B(C   2,C   1)                  1.4050         0.591274   
      3. B(C   3,C   2)                  1.4052         0.590766   
      4. B(C   4,C   3)                  1.3899         0.624976   
      5. B(C   5,C   4)                  1.3986         0.605473   
      6. B(C   5,C   0)                  1.3985         0.605677   
      7. B(H   6,C   0)                  1.0828         0.369743   
      8. B(N   7,C   2)                  1.3906         0.558317   
      9. B(N   8,N   7)                  1.1375         1.267016   
     10. B(H   9,C   5)                  1.0700         0.387494   
     11. B(H  10,C   4)                  1.0700         0.387602   
     12. B(H  11,C   3)                  1.0700         0.387539   
     13. A(C   5,C   0,H   6)          120.4813         0.353091   
     14. A(C   1,C   0,H   6)          120.6016         0.354972   
     15. A(C   1,C   0,C   5)          118.9170         0.432865   
     16. A(C   0,C   1,C   2)          116.6113         0.430997   
     17. A(C   3,C   2,N   7)          117.2857         0.419571   
     18. A(C   1,C   2,N   7)          117.2971         0.419636   
     19. A(C   1,C   2,C   3)          125.4172         0.426669   
     20. A(C   2,C   3,C   4)          116.6031         0.430932   
     21. A(C   4,C   3,H  11)          121.7007         0.357818   
     22. A(C   2,C   3,H  11)          121.6962         0.354415   
     23. A(C   3,C   4,H  10)          120.5403         0.357828   
     24. A(C   3,C   4,C   5)          118.9186         0.432841   
     25. A(C   5,C   4,H  10)          120.5412         0.355906   
     26. A(C   4,C   5,H   9)          118.2376         0.355889   
     27. A(C   0,C   5,H   9)          118.2296         0.355909   
     28. A(C   0,C   5,C   4)          123.5328         0.430408   
     29. L(C   2,N   7,N   8,C   1, 2) 179.8630         0.475382   
     30. L(C   2,N   7,N   8,C   1, 1) 179.9895         0.475382   
     31. D(C   2,C   1,C   0,H   6)   -179.9505         0.024531   
     32. D(C   2,C   1,C   0,C   5)      0.0352         0.024531   
     33. D(N   7,C   2,C   1,C   0)    179.9815         0.021837   
     34. D(C   3,C   2,C   1,C   0)     -0.0054         0.021837   
     35. D(C   4,C   3,C   2,N   7)    179.9744         0.024021   
     36. D(H  11,C   3,C   2,C   1)    179.9614         0.024021   
     37. D(C   4,C   3,C   2,C   1)     -0.0388         0.024021   
     38. D(H  11,C   3,C   2,N   7)     -0.0254         0.024021   
     39. D(H  10,C   4,C   3,H  11)      0.0503         0.027055   
     40. D(H  10,C   4,C   3,C   2)   -179.9495         0.027055   
     41. D(C   5,C   4,C   3,H  11)   -179.9491         0.027055   
     42. D(C   5,C   4,C   3,C   2)      0.0511         0.027055   
     43. D(H   9,C   5,C   0,C   1)    179.9772         0.025316   
     44. D(C   4,C   5,C   0,H   6)    179.9635         0.025316   
     45. D(C   4,C   5,C   0,C   1)     -0.0223         0.025316   
     46. D(H   9,C   5,C   4,H  10)     -0.0223         0.025298   
     47. D(H   9,C   5,C   4,C   3)    179.9771         0.025298   
     48. D(C   0,C   5,C   4,H  10)    179.9772         0.025298   
     49. D(C   0,C   5,C   4,C   3)     -0.0234         0.025298   
     50. D(H   9,C   5,C   0,H   6)     -0.0370         0.025316   
    -----------------------------------------------------------------

Number of atoms                         .... 12
Number of degrees of freedom            .... 50

         *************************************************************
         *                GEOMETRY OPTIMIZATION CYCLE   1            *
         *************************************************************
---------------------------------
CARTESIAN COORDINATES (ANGSTROEM)
---------------------------------
  C     -1.932300    0.086800   -1.089200
  C     -0.549100    0.015500   -0.972700
  C      0.042800    0.830300    0.007000
  C     -0.647100    1.701100    0.867500
  C     -2.028900    1.750700    0.725900
  C     -2.638700    0.947500   -0.243100
  H     -2.455400   -0.514000   -1.822600
  N      1.426100    0.769900    0.136100
  N      2.557800    0.721400    0.240600
  H     -3.703100    0.994000   -0.342500
  H     -2.616500    2.392900    1.348100
  H     -0.134700    2.295700    1.594700

----------------------------
CARTESIAN COORDINATES (A.U.)
----------------------------
  NO LB      ZA    FRAG    MASS        X           Y           Z
   0 C     6.0000    0    12.011         -3.651517808576034          0.164028228424365         -2.058289705067027
   1 C     6.0000    0    12.011         -1.037648620136159          0.029290755075779         -1.838136610465201
   2 C     6.0000    0    12.011          0.080880278531830          1.569039608994815          0.013228082937449
   3 C     6.0000    0    12.011         -1.222841781260442          3.214613126413441          1.639337421176686
   4 C     6.0000    0    12.011         -3.834065353112828          3.308343542655935          1.371752200613437
   5 C     6.0000    0    12.011         -4.986420349578007          1.790515511890386         -0.459392423156256
   6 H     1.0000    0     1.008         -4.640033549230242         -0.971319232835523         -3.444214851684873
   7 N     7.0000    0    14.007          2.694938439585097          1.454900150505972          0.257191726826682
   8 N     7.0000    0    14.007          4.833541505343777          1.363248433010791          0.454668107821453
   9 H     1.0000    0     1.008         -6.997844846523787          1.878387777117724         -0.647231200868029
  10 H     1.0000    0     1.008         -4.944468429404955          4.521925665860163          2.547539801139239
  11 H     1.0000    0     1.008         -0.254546110239193          4.338244285643017          3.013546265764220

--------------------------------
INTERNAL COORDINATES (ANGSTROEM)
--------------------------------
 C      0   0   0   0.000000     0.000     0.000
 C      1   0   0   1.389927     0.000     0.000
 C      2   1   0   1.405011   116.611     0.000
 C      3   2   1   1.405245   125.417     0.000
 C      4   3   2   1.389922   116.603   359.961
 C      1   2   3   1.398460   118.917     0.035
 H      1   2   3   1.082806   120.602   180.050
 N      3   2   1   1.390624   117.297   179.981
 N      8   3   2   1.137549   179.928    81.715
 H      6   1   2   1.070042   118.230   179.977
 H      5   4   3   1.069966   120.540   180.051
 H      4   3   2   1.070011   121.696   179.961

---------------------------
INTERNAL COORDINATES (A.U.)
---------------------------
 C      0   0   0   0.000000     0.000     0.000
 C      1   0   0   2.626582     0.000     0.000
 C      2   1   0   2.655087   116.611     0.000
 C      3   2   1   2.655529   125.417     0.000
 C      4   3   2   2.626571   116.603   359.961
 C      1   2   3   2.642707   118.917     0.035
 H      1   2   3   2.046208   120.602   180.050
 N      3   2   1   2.627898   117.297   179.981
 N      8   3   2   2.149656   179.928    81.715
 H      6   1   2   2.022086   118.230   179.977
 H      5   4   3   2.021943   120.540   180.051
 H      4   3   2   2.022027   121.696   179.961

---------------------
BASIS SET INFORMATION
---------------------
There are 3 groups of distinct atoms

 Group   1 Type C   : 6s3p contracted to 3s2p pattern {321/21}
 Group   2 Type H   : 3s contracted to 2s pattern {21}
 Group   3 Type N   : 6s3p contracted to 3s2p pattern {321/21}

Atom   0C    basis set group =>   1
Atom   1C    basis set group =>   1
Atom   2C    basis set group =>   1
Atom   3C    basis set group =>   1
Atom   4C    basis set group =>   1
Atom   5C    basis set group =>   1
Atom   6H    basis set group =>   2
Atom   7N    basis set group =>   3
Atom   8N    basis set group =>   3
Atom   9H    basis set group =>   2
Atom  10H    basis set group =>   2
Atom  11H    basis set group =>   2
------------------------------------------------------------------------------
                           ORCA GTO INTEGRAL CALCULATION
------------------------------------------------------------------------------

                         BASIS SET STATISTICS AND STARTUP INFO

 # of primitive gaussian shells          ...   84
 # of primitive gaussian functions       ...  132
 # of contracted shell                   ...   48
 # of contracted basis functions         ...   80
 Highest angular momentum                ...    1
 Maximum contraction depth               ...    3
 Integral package used                   ... LIBINT
 Integral threshhold            Thresh   ...  2.500e-11
 Primitive cut-off              TCut     ...  2.500e-12


                              INTEGRAL EVALUATION

 One electron integrals                  ... done
 Pre-screening matrix                    ... done
 Shell pair data                         ... done (   0.000 sec)

-------------------------------------------------------------------------------
                                 ORCA SCF
-------------------------------------------------------------------------------

------------
SCF SETTINGS
------------
Hamiltonian:
 Density Functional     Method          .... DFT(GTOs)
 Exchange Functional    Exchange        .... B88
   X-Alpha parameter    XAlpha          ....  0.666667
   Becke's b parameter  XBeta           ....  0.004200
 Correlation Functional Correlation     .... LYP
 LDA part of GGA corr.  LDAOpt          .... VWN-3
 Gradients option       PostSCFGGA      .... off
 Hybrid DFT is turned on
   Fraction HF Exchange ScalHFX         ....  0.200000
   Scaling of DF-GGA-X  ScalDFX         ....  0.720000
   Scaling of DF-GGA-C  ScalDFC         ....  0.810000
   Scaling of DF-LDA-C  ScalLDAC        ....  1.000000
   Perturbative correction              ....  0.000000
   NL short-range parameter             ....  4.800000


General Settings:
 Integral files         IntName         .... t-C6H4-N2-B3LYPG-3-21G
 Hartree-Fock type      HFTyp           .... UHF
 Total Charge           Charge          ....    0
 Multiplicity           Mult            ....    3
 Number of Electrons    NEL             ....   54
 Basis Dimension        Dim             ....   80
 Nuclear Repulsion      ENuc            ....    302.2124122421 Eh

Convergence Acceleration:
 DIIS                   CNVDIIS         .... on
   Start iteration      DIISMaxIt       ....    12
   Startup error        DIISStart       ....  0.200000
   # of expansion vecs  DIISMaxEq       ....     5
   Bias factor          DIISBfac        ....   1.050
   Max. coefficient     DIISMaxC        ....  10.000
 Newton-Raphson         CNVNR           .... off
 SOSCF                  CNVSOSCF        .... off
 Level Shifting         CNVShift        .... on
   Level shift para.    LevelShift      ....    0.2500
   Turn off err/grad.   ShiftErr        ....    0.0010
 Zerner damping         CNVZerner       .... off
 Static damping         CNVDamp         .... on
   Fraction old density DampFac         ....    0.7000
   Max. Damping (<1)    DampMax         ....    0.9800
   Min. Damping (>=0)   DampMin         ....    0.0000
   Turn off err/grad.   DampErr         ....    0.1000
 Fernandez-Rico         CNVRico         .... off

SCF Procedure:
 Maximum # iterations   MaxIter         ....  1000
 SCF integral mode      SCFMode         .... Direct
   Integral package                     .... LIBINT
 Reset frequeny         DirectResetFreq ....    20
 Integral Threshold     Thresh          ....  2.500e-11 Eh
 Primitive CutOff       TCut            ....  2.500e-12 Eh

Convergence Tolerance:
 Convergence Check Mode ConvCheckMode   .... Total+1el-Energy
 Energy Change          TolE            ....  1.000e-08 Eh
 1-El. energy change                    ....  1.000e-05 Eh
 DIIS Error             TolErr          ....  5.000e-07


Diagonalization of the overlap matrix:
Smallest eigenvalue                        ... 2.350e-03
Time for diagonalization                   ...    0.002 sec
Threshold for overlap eigenvalues          ... 1.000e-08
Number of eigenvalues below threshold      ... 0
Time for construction of square roots      ...    0.000 sec
Total time needed                          ...    0.002 sec

-------------------
DFT GRID GENERATION
-------------------

General Integration Accuracy     IntAcc      ...  4.340
Radial Grid Type                 RadialGrid  ... Gauss-Chebyshev
Angular Grid (max. acc.)         AngularGrid ... Lebedev-110
Angular grid pruning method      GridPruning ... 3 (G Style)
Weight generation scheme         WeightScheme... Becke
Basis function cutoff            BFCut       ...    1.0000e-11
Integration weight cutoff        WCut        ...    1.0000e-14
Grids for H and He will be reduced by one unit

# of grid points (after initial pruning)     ...  16516 (   0.0 sec)
# of grid points (after weights+screening)   ...  15522 (   0.0 sec)
nearest neighbour list constructed           ...    0.0 sec
Grid point re-assignment to atoms done       ...    0.0 sec
Grid point division into batches done        ...    0.0 sec
Reduced shell lists constructed in    0.1 sec

Total number of grid points                  ...    15522
Total number of batches                      ...      250
Average number of points per batch           ...       62
Average number of grid points per atom       ...     1294
Average number of shells per batch           ...    32.12 (66.92%)
Average number of basis functions per batch  ...    57.39 (71.74%)
Average number of large shells per batch     ...    25.51 (79.42%)
Average number of large basis fcns per batch ...    46.31 (80.68%)
Maximum spatial batch extension              ...  20.82, 21.39, 20.42 au
Average spatial batch extension              ...   3.56,  4.80,  4.72 au

Time for grid setup =    0.173 sec

------------------------------
INITIAL GUESS: MODEL POTENTIAL
------------------------------
Loading Hartree-Fock densities                     ... done
Calculating cut-offs                               ... done
Setting up the integral package                    ... done
Initializing the effective Hamiltonian             ... done
Starting the Coulomb interaction                   ... done (   0.0 sec)
Reading the grid                                   ... done
Mapping shells                                     ... done
Starting the XC term evaluation                    ... done (   0.1 sec)
  promolecular density results
     # of electrons  =     54.012190446
     EX              =    -45.096275090
     EC              =     -1.827123791
     EX+EC           =    -46.923398880
Transforming the Hamiltonian                       ... done (   0.0 sec)
Diagonalizing the Hamiltonian                      ... done (   0.0 sec)
Back transforming the eigenvectors                 ... done (   0.0 sec)
Now organizing SCF variables                       ... done
                      ------------------
                      INITIAL GUESS DONE (   0.4 sec)
                      ------------------
--------------
SCF ITERATIONS
--------------
ITER       Energy         Delta-E        Max-DP      RMS-DP      [F,P]     Damp
               ***  Starting incremental Fock matrix formation  ***
  0   -338.3389743164   0.000000000000 0.04221070  0.00219458  0.1300275 0.7000
  1   -338.4023213021  -0.063346985742 0.03003478  0.00158638  0.0636054 0.7000
                               ***Turning on DIIS***
  2   -338.4268125426  -0.024491240447 0.05651793  0.00272600  0.0319513 0.0000
  3   -338.4623190212  -0.035506478650 0.02032670  0.00120163  0.0398017 0.0000
  4   -338.4749342509  -0.012615229704 0.00818147  0.00038725  0.0111326 0.0000
  5   -338.4761459701  -0.001211719166 0.00377524  0.00018218  0.0086471 0.0000
  6   -338.4765802943  -0.000434324156 0.00457728  0.00014222  0.0016940 0.0000
  7   -338.4767940519  -0.000213757686 0.00349533  0.00022427  0.0008683 0.0000
  8   -338.4769841893  -0.000190137332 0.00355218  0.00011892  0.0008007 0.0000
  9   -338.4770380779  -0.000053888669 0.00093239  0.00004070  0.0004877 0.0000
 10   -338.4770467605  -0.000008682536 0.00068419  0.00002489  0.0002879 0.0000
 11   -338.4770506472  -0.000003886765 0.00025195  0.00001025  0.0002381 0.0000
 12   -338.4770517176  -0.000001070330 0.00044047  0.00001707  0.0001107 0.0000
 13   -338.4770529140  -0.000001196392 0.00021231  0.00000824  0.0000539 0.0000
 14   -338.4770532002  -0.000000286230 0.00007429  0.00000192  0.0000304 0.0000
 15   -338.4770531877   0.000000012495 0.00012576  0.00000560  0.0000209 0.0000
 16   -338.4770532841  -0.000000096362 0.00003238  0.00000177  0.0000060 0.0000
 17   -338.4770532947  -0.000000010648 0.00001408  0.00000073  0.0000043 0.0000
 18   -338.4770532962  -0.000000001451 0.00000656  0.00000037  0.0000050 0.0000
 19   -338.4770532965  -0.000000000291 0.00000433  0.00000020  0.0000074 0.0000
               *** Restarting incremental Fock matrix formation ***
                                   *** Resetting DIIS ***
 20   -338.4770532956   0.000000000904 0.00000307  0.00000017  0.0000013 0.0000
 21   -338.4770532954   0.000000000134 0.00000110  0.00000007  0.0000023 0.0000
                 **** Energy Check signals convergence ****

               *****************************************************
               *                     SUCCESS                       *
               *           SCF CONVERGED AFTER  22 CYCLES          *
               *****************************************************

Setting up the final grid:

General Integration Accuracy     IntAcc      ...  4.670
Radial Grid Type                 RadialGrid  ... Gauss-Chebyshev
Angular Grid (max. acc.)         AngularGrid ... Lebedev-302
Angular grid pruning method      GridPruning ... 3 (G Style)
Weight generation scheme         WeightScheme... Becke
Basis function cutoff            BFCut       ...    1.0000e-11
Integration weight cutoff        WCut        ...    1.0000e-14
Grids for H and He will be reduced by one unit

# of grid points (after initial pruning)     ...  63272 (   0.0 sec)
# of grid points (after weights+screening)   ...  58977 (   0.1 sec)
nearest neighbour list constructed           ...    0.0 sec
Grid point re-assignment to atoms done       ...    0.0 sec
Grid point division into batches done        ...    0.2 sec
Reduced shell lists constructed in    0.5 sec

Total number of grid points                  ...    58977
Total number of batches                      ...      928
Average number of points per batch           ...       63
Average number of grid points per atom       ...     4915
Average number of shells per batch           ...    29.08 (60.58%)
Average number of basis functions per batch  ...    52.16 (65.20%)
Average number of large shells per batch     ...    22.71 (78.09%)
Average number of large basis fcns per batch ...    41.37 (79.32%)
Maximum spatial batch extension              ...  18.53, 20.27, 20.73 au
Average spatial batch extension              ...   2.58,  3.01,  2.98 au

Final grid set up in    0.7 sec
Final integration                            ... done (   0.6 sec)
Change in XC energy                          ...     0.000598334
Integrated number of electrons               ...    53.999965309
Previous integrated no of electrons          ...    54.008975554

----------------
TOTAL SCF ENERGY
----------------

Total Energy       :         -338.47645496 Eh           -9210.41259 eV

Components:
Nuclear Repulsion  :          302.21241224 Eh            8223.61782 eV
Electronic Energy  :         -640.68886720 Eh          -17434.03041 eV

One Electron Energy:        -1053.93430572 Eh          -28679.01047 eV
Two Electron Energy:          413.24543852 Eh           11244.98007 eV

Virial components:
Potential Energy   :         -674.33335965 Eh          -18349.54359 eV
Kinetic Energy     :          335.85690469 Eh            9139.13100 eV
Virial Ratio       :            2.00779960


DFT components:
N(Alpha)           :       27.999982687084 electrons
N(Beta)            :       25.999982622365 electrons
N(Total)           :       53.999965309450 electrons
E(X)               :      -36.171168109141 Eh       
E(C)               :       -2.345348429199 Eh       
E(XC)              :      -38.516516538340 Eh       

---------------
SCF CONVERGENCE
---------------

  Last Energy change         ...    4.0927e-12  Tolerance :   1.0000e-08
  Last MAX-Density change    ...    1.2562e-06  Tolerance :   1.0000e-07
  Last RMS-Density change    ...    6.3248e-08  Tolerance :   5.0000e-09
  Last DIIS Error            ...    5.3452e-07  Tolerance :   5.0000e-07

             **** THE GBW FILE WAS UPDATED (t-C6H4-N2-B3LYPG-3-21G.gbw) ****
             **** DENSITY FILE WAS UPDATED (t-C6H4-N2-B3LYPG-3-21G.scfp.tmp) ****
             **** ENERGY FILE WAS UPDATED (t-C6H4-N2-B3LYPG-3-21G.en.tmp) ****
----------------------
UHF SPIN CONTAMINATION
----------------------

Warning: in a DFT calculation there is little theoretical justification to 
         calculate <S**2> as in Hartree-Fock theory. We will do it anyways
         but you should keep in mind that the values have only limited relevance

Expectation value of <S**2>     :     2.038883
Ideal value S*(S+1) for S=1.0   :     2.000000
Deviation                       :     0.038883

----------------
ORBITAL ENERGIES
----------------
                 SPIN UP ORBITALS
  NO   OCC          E(Eh)            E(eV) 
   0   1.0000     -14.371626      -391.0718 
   1   1.0000     -14.329707      -389.9312 
   2   1.0000     -10.213469      -277.9226 
   3   1.0000     -10.174569      -276.8641 
   4   1.0000     -10.149277      -276.1759 
   5   1.0000     -10.147643      -276.1314 
   6   1.0000     -10.140448      -275.9356 
   7   1.0000     -10.134500      -275.7738 
   8   1.0000      -1.128886       -30.7185 
   9   1.0000      -0.902881       -24.5686 
  10   1.0000      -0.822890       -22.3920 
  11   1.0000      -0.773869       -21.0581 
  12   1.0000      -0.700526       -19.0623 
  13   1.0000      -0.634987       -17.2789 
  14   1.0000      -0.582961       -15.8632 
  15   1.0000      -0.510663       -13.8958 
  16   1.0000      -0.499650       -13.5962 
  17   1.0000      -0.496674       -13.5152 
  18   1.0000      -0.465297       -12.6614 
  19   1.0000      -0.441760       -12.0209 
  20   1.0000      -0.438426       -11.9302 
  21   1.0000      -0.409908       -11.1542 
  22   1.0000      -0.387525       -10.5451 
  23   1.0000      -0.377784       -10.2800 
  24   1.0000      -0.286832        -7.8051 
  25   1.0000      -0.281862        -7.6698 
  26   1.0000      -0.279686        -7.6106 
  27   1.0000      -0.137238        -3.7344 
  28   0.0000      -0.040560        -1.1037 
  29   0.0000      -0.015878        -0.4321 
  30   0.0000       0.019180         0.5219 
  31   0.0000       0.109266         2.9733 
  32   0.0000       0.151429         4.1206 
  33   0.0000       0.155195         4.2231 
  34   0.0000       0.184931         5.0322 
  35   0.0000       0.202904         5.5213 
  36   0.0000       0.207243         5.6394 
  37   0.0000       0.281569         7.6619 
  38   0.0000       0.311549         8.4777 
  39   0.0000       0.326697         8.8899 
  40   0.0000       0.362483         9.8637 
  41   0.0000       0.504656        13.7324 
  42   0.0000       0.527814        14.3625 
  43   0.0000       0.548706        14.9311 
  44   0.0000       0.671650        18.2765 
  45   0.0000       0.678483        18.4625 
  46   0.0000       0.685441        18.6518 
  47   0.0000       0.728606        19.8264 
  48   0.0000       0.750413        20.4198 
  49   0.0000       0.758175        20.6310 
  50   0.0000       0.762938        20.7606 
  51   0.0000       0.767074        20.8731 
  52   0.0000       0.800790        21.7906 
  53   0.0000       0.814976        22.1766 
  54   0.0000       0.820025        22.3140 
  55   0.0000       0.847519        23.0622 
  56   0.0000       0.901924        24.5426 
  57   0.0000       0.903709        24.5912 
  58   0.0000       0.991608        26.9830 
  59   0.0000       1.021622        27.7997 
  60   0.0000       1.034421        28.1480 
  61   0.0000       1.046405        28.4741 
  62   0.0000       1.090332        29.6694 
  63   0.0000       1.097697        29.8699 
  64   0.0000       1.123173        30.5631 
  65   0.0000       1.149571        31.2814 
  66   0.0000       1.176331        32.0096 
  67   0.0000       1.276861        34.7451 
  68   0.0000       1.339277        36.4436 
  69   0.0000       1.351798        36.7843 
  70   0.0000       1.407254        38.2933 
  71   0.0000       1.450558        39.4717 
  72   0.0000       1.507971        41.0340 
  73   0.0000       1.536009        41.7969 
  74   0.0000       1.581068        43.0230 
  75   0.0000       1.835840        49.9557 
  76   0.0000       1.895826        51.5881 
  77   0.0000       2.201406        59.9033 
  78   0.0000       2.314795        62.9888 
  79   0.0000       2.459842        66.9357 

                 SPIN DOWN ORBITALS
  NO   OCC          E(Eh)            E(eV) 
   0   1.0000     -14.367234      -390.9523 
   1   1.0000     -14.320027      -389.6677 
   2   1.0000     -10.214116      -277.9402 
   3   1.0000     -10.156253      -276.3657 
   4   1.0000     -10.149110      -276.1713 
   5   1.0000     -10.145917      -276.0844 
   6   1.0000     -10.142132      -275.9814 
   7   1.0000     -10.130213      -275.6571 
   8   1.0000      -1.114008       -30.3137 
   9   1.0000      -0.892321       -24.2813 
  10   1.0000      -0.815265       -22.1845 
  11   1.0000      -0.762190       -20.7402 
  12   1.0000      -0.684542       -18.6273 
  13   1.0000      -0.625556       -17.0222 
  14   1.0000      -0.574790       -15.6408 
  15   1.0000      -0.501946       -13.6586 
  16   1.0000      -0.491357       -13.3705 
  17   1.0000      -0.460872       -12.5410 
  18   1.0000      -0.459961       -12.5162 
  19   1.0000      -0.431822       -11.7505 
  20   1.0000      -0.420200       -11.4342 
  21   1.0000      -0.397414       -10.8142 
  22   1.0000      -0.371484       -10.1086 
  23   1.0000      -0.370290       -10.0761 
  24   1.0000      -0.266739        -7.2583 
  25   1.0000      -0.260486        -7.0882 
  26   0.0000      -0.112111        -3.0507 
  27   0.0000      -0.043041        -1.1712 
  28   0.0000      -0.028371        -0.7720 
  29   0.0000      -0.001004        -0.0273 
  30   0.0000       0.052763         1.4358 
  31   0.0000       0.113160         3.0792 
  32   0.0000       0.157884         4.2962 
  33   0.0000       0.172107         4.6833 
  34   0.0000       0.188758         5.1364 
  35   0.0000       0.206105         5.6084 
  36   0.0000       0.214661         5.8412 
  37   0.0000       0.291335         7.9276 
  38   0.0000       0.324055         8.8180 
  39   0.0000       0.334966         9.1149 
  40   0.0000       0.371727        10.1152 
  41   0.0000       0.515996        14.0410 
  42   0.0000       0.542681        14.7671 
  43   0.0000       0.562614        15.3095 
  44   0.0000       0.679991        18.5035 
  45   0.0000       0.685013        18.6402 
  46   0.0000       0.704909        19.1815 
  47   0.0000       0.753376        20.5004 
  48   0.0000       0.761372        20.7180 
  49   0.0000       0.771545        20.9948 
  50   0.0000       0.775830        21.1114 
  51   0.0000       0.785318        21.3696 
  52   0.0000       0.810584        22.0571 
  53   0.0000       0.820328        22.3222 
  54   0.0000       0.831534        22.6272 
  55   0.0000       0.854538        23.2532 
  56   0.0000       0.911234        24.7959 
  57   0.0000       0.913796        24.8657 
  58   0.0000       0.994895        27.0725 
  59   0.0000       1.038068        28.2473 
  60   0.0000       1.054741        28.7010 
  61   0.0000       1.056635        28.7525 
  62   0.0000       1.095091        29.7989 
  63   0.0000       1.106130        30.0993 
  64   0.0000       1.132785        30.8246 
  65   0.0000       1.154096        31.4045 
  66   0.0000       1.204295        32.7705 
  67   0.0000       1.281394        34.8685 
  68   0.0000       1.343551        36.5599 
  69   0.0000       1.355803        36.8933 
  70   0.0000       1.410665        38.3862 
  71   0.0000       1.453032        39.5390 
  72   0.0000       1.514813        41.2202 
  73   0.0000       1.540602        41.9219 
  74   0.0000       1.589762        43.2596 
  75   0.0000       1.846654        50.2500 
  76   0.0000       1.904865        51.8340 
  77   0.0000       2.214505        60.2597 
  78   0.0000       2.328921        63.3732 
  79   0.0000       2.471041        67.2404 

                    ********************************
                    * MULLIKEN POPULATION ANALYSIS *
                    ********************************

--------------------------------------------
MULLIKEN ATOMIC CHARGES AND SPIN POPULATIONS
--------------------------------------------
   0 C :   -0.233006   -0.198890
   1 C :    0.047480    1.232059
   2 C :    0.305523   -0.121162
   3 C :   -0.176703    0.249930
   4 C :   -0.185153   -0.156235
   5 C :   -0.188430    0.314743
   6 H :    0.209965    0.024914
   7 N :   -0.299189    0.170726
   8 N :   -0.078417    0.487412
   9 H :    0.193559   -0.005837
  10 H :    0.198420    0.006685
  11 H :    0.205953   -0.004344
Sum of atomic charges         :   -0.0000000
Sum of atomic spin populations:    2.0000000

-----------------------------------------------------
MULLIKEN REDUCED ORBITAL CHARGES AND SPIN POPULATIONS
-----------------------------------------------------
CHARGE
  0 C s       :     3.299616  s :     3.299616
      pz      :     1.014277  p :     2.933390
      px      :     0.914509
      py      :     1.004604
  1 C s       :     3.343431  s :     3.343431
      pz      :     0.879981  p :     2.609090
      px      :     0.819369
      py      :     0.909740
  2 C s       :     3.063601  s :     3.063601
      pz      :     1.045438  p :     2.630876
      px      :     0.516308
      py      :     1.069130
  3 C s       :     3.282869  s :     3.282869
      pz      :     0.982700  p :     2.893834
      px      :     0.931684
      py      :     0.979450
  4 C s       :     3.292198  s :     3.292198
      pz      :     0.981050  p :     2.892955
      px      :     0.916998
      py      :     0.994907
  5 C s       :     3.270593  s :     3.270593
      pz      :     0.947205  p :     2.917837
      px      :     1.007442
      py      :     0.963191
  6 H s       :     0.790035  s :     0.790035
  7 N s       :     3.486612  s :     3.486612
      pz      :     1.311753  p :     3.812577
      px      :     1.169234
      py      :     1.331591
  8 N s       :     3.940787  s :     3.940787
      pz      :     1.031633  p :     3.137631
      px      :     1.030796
      py      :     1.075201
  9 H s       :     0.806441  s :     0.806441
 10 H s       :     0.801580  s :     0.801580
 11 H s       :     0.794047  s :     0.794047

SPIN
  0 C s       :    -0.033290  s :    -0.033290
      pz      :    -0.065705  p :    -0.165600
      px      :    -0.024682
      py      :    -0.075213
  1 C s       :     0.263492  s :     0.263492
      pz      :     0.335820  p :     0.968567
      px      :     0.261780
      py      :     0.370966
  2 C s       :    -0.032549  s :    -0.032549
      pz      :    -0.043274  p :    -0.088613
      px      :     0.003605
      py      :    -0.048943
  3 C s       :     0.032038  s :     0.032038
      pz      :     0.092277  p :     0.217891
      px      :     0.017061
      py      :     0.108553
  4 C s       :    -0.025720  s :    -0.025720
      pz      :    -0.053147  p :    -0.130515
      px      :    -0.016910
      py      :    -0.060458
  5 C s       :     0.041599  s :     0.041599
      pz      :     0.115732  p :     0.273144
      px      :     0.022330
      py      :     0.135082
  6 H s       :     0.024914  s :     0.024914
  7 N s       :     0.008528  s :     0.008528
      pz      :     0.075674  p :     0.162198
      px      :    -0.007078
      py      :     0.093601
  8 N s       :     0.032694  s :     0.032694
      pz      :     0.211026  p :     0.454718
      px      :    -0.008406
      py      :     0.252097
  9 H s       :    -0.005837  s :    -0.005837
 10 H s       :     0.006685  s :     0.006685
 11 H s       :    -0.004344  s :    -0.004344


                     *******************************
                     * LOEWDIN POPULATION ANALYSIS *
                     *******************************

-------------------------------------------
LOEWDIN ATOMIC CHARGES AND SPIN POPULATIONS
-------------------------------------------
   0 C :   -0.109243   -0.115174
   1 C :    0.003133    1.118222
   2 C :   -0.016741   -0.038794
   3 C :   -0.117431    0.207935
   4 C :   -0.084989   -0.107063
   5 C :   -0.125100    0.260767
   6 H :    0.111401    0.019671
   7 N :    0.038028    0.189721
   8 N :   -0.014866    0.461843
   9 H :    0.099656   -0.001630
  10 H :    0.104989    0.004758
  11 H :    0.111162   -0.000257

----------------------------------------------------
LOEWDIN REDUCED ORBITAL CHARGES AND SPIN POPULATIONS
----------------------------------------------------
CHARGE
  0 C s       :     2.934885  s :     2.934885
      pz      :     1.053346  p :     3.174357
      px      :     1.077975
      py      :     1.043037
  1 C s       :     3.026666  s :     3.026666
      pz      :     0.978542  p :     2.970201
      px      :     1.012565
      py      :     0.979095
  2 C s       :     2.886346  s :     2.886346
      pz      :     1.126817  p :     3.130395
      px      :     0.873110
      py      :     1.130468
  3 C s       :     2.924204  s :     2.924204
      pz      :     1.058881  p :     3.193227
      px      :     1.080958
      py      :     1.053388
  4 C s       :     2.924928  s :     2.924928
      pz      :     1.046161  p :     3.160060
      px      :     1.074903
      py      :     1.038996
  5 C s       :     2.923006  s :     2.923006
      pz      :     1.059662  p :     3.202093
      px      :     1.084674
      py      :     1.057757
  6 H s       :     0.888599  s :     0.888599
  7 N s       :     3.138917  s :     3.138917
      pz      :     1.274137  p :     3.823055
      px      :     1.254051
      py      :     1.294867
  8 N s       :     3.555878  s :     3.555878
      pz      :     1.060179  p :     3.458987
      px      :     1.297421
      py      :     1.101387
  9 H s       :     0.900344  s :     0.900344
 10 H s       :     0.895011  s :     0.895011
 11 H s       :     0.888838  s :     0.888838

SPIN
  0 C s       :    -0.008715  s :    -0.008715
      pz      :    -0.049916  p :    -0.106459
      px      :     0.001213
      py      :    -0.057755
  1 C s       :     0.167263  s :     0.167263
      pz      :     0.336260  p :     0.950959
      px      :     0.242382
      py      :     0.372317
  2 C s       :    -0.006617  s :    -0.006617
      pz      :    -0.011513  p :    -0.032176
      px      :    -0.002477
      py      :    -0.018186
  3 C s       :     0.012490  s :     0.012490
      pz      :     0.083495  p :     0.195445
      px      :     0.012666
      py      :     0.099285
  4 C s       :    -0.005957  s :    -0.005957
      pz      :    -0.043063  p :    -0.101106
      px      :    -0.007590
      py      :    -0.050452
  5 C s       :     0.017733  s :     0.017733
      pz      :     0.104867  p :     0.243035
      px      :     0.014530
      py      :     0.123637
  6 H s       :     0.019671  s :     0.019671
  7 N s       :     0.008576  s :     0.008576
      pz      :     0.079190  p :     0.181145
      px      :     0.004283
      py      :     0.097672
  8 N s       :     0.009234  s :     0.009234
      pz      :     0.206451  p :     0.452609
      px      :    -0.000642
      py      :     0.246801
  9 H s       :    -0.001630  s :    -0.001630
 10 H s       :     0.004758  s :     0.004758
 11 H s       :    -0.000257  s :    -0.000257


                      *****************************
                      * MAYER POPULATION ANALYSIS *
                      *****************************

  NA   - Mulliken gross atomic population
  ZA   - Total nuclear charge
  QA   - Mulliken gross atomic charge
  VA   - Mayer's total valence
  BVA  - Mayer's bonded valence
  FA   - Mayer's free valence

  ATOM       NA         ZA         QA         VA         BVA        FA
  0 C      6.2330     6.0000    -0.2330     3.7731     3.7545     0.0186
  1 C      5.9525     6.0000     0.0475     3.7134     2.8680     0.8454
  2 C      5.6945     6.0000     0.3055     3.3635     3.3535     0.0100
  3 C      6.1767     6.0000    -0.1767     3.7809     3.7471     0.0338
  4 C      6.1852     6.0000    -0.1852     3.7879     3.7770     0.0109
  5 C      6.1884     6.0000    -0.1884     3.7683     3.7180     0.0503
  6 H      0.7900     1.0000     0.2100     0.9237     0.9231     0.0006
  7 N      7.2992     7.0000    -0.2992     3.1692     3.1330     0.0361
  8 N      7.0784     7.0000    -0.0784     2.7082     2.4985     0.2097
  9 H      0.8064     1.0000     0.1936     0.9273     0.9273     0.0000
 10 H      0.8016     1.0000     0.1984     0.9282     0.9282     0.0000
 11 H      0.7940     1.0000     0.2060     0.9254     0.9254     0.0000

  Mayer bond orders larger than 0.1
B(  0-C ,  1-C ) :   1.4325 B(  0-C ,  5-C ) :   1.3458 B(  0-C ,  6-H ) :   0.9142 
B(  1-C ,  2-C ) :   1.2467 B(  2-C ,  3-C ) :   1.2299 B(  2-C ,  7-N ) :   0.7542 
B(  2-C ,  8-N ) :   0.1142 B(  3-C ,  4-C ) :   1.4536 B(  3-C , 11-H ) :   0.9206 
B(  4-C ,  5-C ) :   1.3519 B(  4-C , 10-H ) :   0.9251 B(  5-C ,  9-H ) :   0.9245 
B(  7-N ,  8-N ) :   2.2375 

-------
TIMINGS
-------

Total SCF time: 0 days 0 hours 0 min 14 sec 

Total time                  ....      14.409 sec
Sum of individual times     ....      14.993 sec  (104.1%)

Fock matrix formation       ....      13.656 sec  ( 94.8%)
  Coulomb formation         ....       9.681 sec  ( 70.9% of F)
  XC integration            ....       3.967 sec  ( 29.0% of F)
    Basis function eval.    ....       1.377 sec  ( 34.7% of XC)
    Density eval.           ....       0.890 sec  ( 22.4% of XC)
    XC-Functional eval.     ....       0.513 sec  ( 12.9% of XC)
    XC-Potential eval.      ....       1.103 sec  ( 27.8% of XC)
Diagonalization             ....       0.054 sec  (  0.4%)
Density matrix formation    ....       0.004 sec  (  0.0%)
Population analysis         ....       0.004 sec  (  0.0%)
Initial guess               ....       0.429 sec  (  3.0%)
Orbital Transformation      ....       0.000 sec  (  0.0%)
Orbital Orthonormalization  ....       0.000 sec  (  0.0%)
DIIS solution               ....       0.013 sec  (  0.1%)
Grid generation             ....       0.832 sec  (  5.8%)

-------------------------   --------------------
FINAL SINGLE POINT ENERGY      -338.476454961084
-------------------------   --------------------

------------------------------------------------------------------------------
                         ORCA SCF GRADIENT CALCULATION
------------------------------------------------------------------------------

Gradient of the Kohn-Sham DFT energy:
Kohn-Sham wavefunction type      ... UKS
Hartree-Fock exchange scaling    ...    0.200
Number of operators              ...    2
Number of atoms                  ...   12
Basis set dimensions             ...   80
Integral neglect threshold       ... 2.5e-11
Integral primitive cutoff        ... 2.5e-12

Nuclear repulsion gradient       ... done
One Electron Gradient            ... done
Pre-screening matrix             ... done
Starting the two electron gradient:
Two electron gradient done
Exchange-correlation gradient    ... done

------------------
CARTESIAN GRADIENT
------------------

   1   C   :   -0.018785633    0.011429422    0.009853901
   2   C   :    0.037359022   -0.016158857   -0.012576248
   3   C   :   -0.078063121    0.010606355    0.000661145
   4   C   :    0.029526583   -0.001311528    0.002742080
   5   C   :   -0.017646005    0.007776965    0.006022756
   6   C   :    0.013782002   -0.002943481   -0.001349269
   7   H   :    0.001763540   -0.000180996    0.000178554
   8   N   :    0.099766259   -0.004907320    0.008539852
   9   N   :   -0.076808559    0.003365951   -0.007016785
  10   H   :    0.010821682    0.000505815    0.002217179
  11   H   :    0.005145030   -0.005280954   -0.005109936
  12   H   :   -0.006860800   -0.002901372   -0.004163229

Norm of the cartesian gradient     ...    0.162422868
RMS gradient                       ...    0.027070478
MAX gradient                       ...    0.099766259

-------
TIMINGS
-------

Total SCF gradient time            ...        4.576 sec

One electron gradient       ....       0.031 sec  (  0.7%)
Prescreening matrices       ....       0.006 sec  (  0.1%)
Two electron gradient       ....       1.087 sec  ( 23.8%)
XC gradient                 ....       3.362 sec  ( 73.5%)
------------------------------------------------------------------------------
                         ORCA GEOMETRY RELAXATION STEP
------------------------------------------------------------------------------

Reading the OPT-File                    .... done
Getting information on internals        .... done
Copying old internal coords+grads       .... done
Making the new internal coordinates     .... (new redundants).... done
Validating the new internal coordinates .... (new redundants).... done
Calculating the B-matrix                .... done
Calculating the G,G- and P matrices     .... done
Transforming gradient to internals      .... done
Projecting the internal gradient        .... done
Number of atoms                         ....  12
Number of internal coordinates          ....  50
Current Energy                          ....  -338.476454961 Eh
Current gradient norm                   ....     0.162422868 Eh/bohr
Maximum allowed component of the step   ....  0.300
Current trust radius                    ....  0.300
Evaluating the initial hessian          ....  (Almloef) done
Projecting the Hessian                  .... done
Forming the augmented Hessian           .... done
Diagonalizing the augmented Hessian     .... done
Last element of RFO vector              ....  0.988573491
Lowest eigenvalues of augmented Hessian:
 -0.013541990  0.023104355  0.023508468  0.024961320  0.025032723
Length of the computed step             ....  0.152482022
The final length of the internal step   ....  0.152482022
Converting the step to cartesian space:
 Initial RMS(Int)=    0.0215642143
Transforming coordinates:
 Iter   0:  RMS(Cart)=    0.0300373595 RMS(Int)=    1.7768966397
 Iter   1:  RMS(Cart)=    0.0006157996 RMS(Int)=    0.0003988201
 Iter   2:  RMS(Cart)=    0.0000224063 RMS(Int)=    0.0000114098
 Iter   3:  RMS(Cart)=    0.0000012065 RMS(Int)=    0.0000011304
 Iter   4:  RMS(Cart)=    0.0000005128 RMS(Int)=    0.0000005112
 Iter   5:  RMS(Cart)=    0.0000002562 RMS(Int)=    0.0000002560
 Iter   6:  RMS(Cart)=    0.0000001283 RMS(Int)=    0.0000001282
 Iter   7:  RMS(Cart)=    0.0000000643 RMS(Int)=    0.0000000642
done
Storing new coordinates                 .... done

                                .--------------------.
          ----------------------|Geometry convergence|---------------------
          Item                value                 Tolerance   Converged
          -----------------------------------------------------------------
          RMS gradient        0.01417937            0.00003000      NO
          MAX gradient        0.07720155            0.00010000      NO
          RMS step            0.02156421            0.00060000      NO
          MAX step            0.07064787            0.00100000      NO
          ....................................................
          Max(Bonds)      0.0319      Max(Angles)    4.05
          Max(Dihed)        0.09      Max(Improp)    0.00
          -----------------------------------------------------------------

The optimization has not yet converged - more geometry cycles are needed


    ---------------------------------------------------------------------------
                         Redundant Internal Coordinates
                            (Angstroem and degrees)

        Definition                    Value    dE/dq     Step     New-Value
    ----------------------------------------------------------------------------
     1. B(C   1,C   0)                1.3899  0.008631 -0.0073    1.3827   
     2. B(C   2,C   1)                1.4050 -0.005702  0.0050    1.4100   
     3. B(C   3,C   2)                1.4052 -0.013831  0.0122    1.4174   
     4. B(C   4,C   3)                1.3899 -0.004219  0.0036    1.3935   
     5. B(C   5,C   4)                1.3986 -0.008037  0.0069    1.4055   
     6. B(C   5,C   0)                1.3985 -0.005695  0.0048    1.4033   
     7. B(H   6,C   0)                1.0828 -0.000872  0.0012    1.0840   
     8. B(N   7,C   2)                1.3906  0.023046 -0.0213    1.3693   
     9. B(N   8,N   7)                1.1375 -0.077202  0.0319    1.1695   
    10. B(H   9,C   5)                1.0700 -0.010949  0.0144    1.0845   
    11. B(H  10,C   4)                1.0700 -0.008967  0.0118    1.0818   
    12. B(H  11,C   3)                1.0700 -0.007727  0.0102    1.0802   
    13. A(C   5,C   0,H   6)          120.48  0.000076   -0.03    120.45   
    14. A(C   1,C   0,H   6)          120.60 -0.003105    0.46    121.06   
    15. A(C   1,C   0,C   5)          118.92  0.003029   -0.43    118.49   
    16. A(C   0,C   1,C   2)          116.61 -0.029028    3.72    120.33   
    17. A(C   3,C   2,N   7)          117.29 -0.014566    1.90    119.18   
    18. A(C   1,C   2,N   7)          117.30 -0.016466    2.15    119.45   
    19. A(C   1,C   2,C   3)          125.42  0.031032   -4.05    121.37   
    20. A(C   2,C   3,C   4)          116.60 -0.007868    1.11    117.72   
    21. A(C   4,C   3,H  11)          121.70  0.000270    0.01    121.71   
    22. A(C   2,C   3,H  11)          121.70  0.007598   -1.13    120.57   
    23. A(C   3,C   4,H  10)          120.54  0.005146   -0.71    119.83   
    24. A(C   3,C   4,C   5)          118.92 -0.010817    1.51    120.42   
    25. A(C   5,C   4,H  10)          120.54  0.005671   -0.80    119.75   
    26. A(C   4,C   5,H   9)          118.24 -0.008389    1.17    119.41   
    27. A(C   0,C   5,H   9)          118.23 -0.005262    0.69    118.92   
    28. A(C   0,C   5,C   4)          123.53  0.013652   -1.86    121.67   
    29. L(C   2,N   7,N   8,C   1, 2) 179.86  0.000010   -0.00    179.86   
    30. L(C   2,N   7,N   8,C   1, 1) 179.99  0.000237   -0.03    179.96   
    31. D(C   2,C   1,C   0,H   6)   -179.95  0.000060   -0.09   -180.04   
    32. D(C   2,C   1,C   0,C   5)      0.04  0.000018   -0.03      0.01   
    33. D(N   7,C   2,C   1,C   0)    179.98 -0.000045    0.07    180.05   
    34. D(C   3,C   2,C   1,C   0)     -0.01 -0.000023    0.03      0.03   
    35. D(C   4,C   3,C   2,N   7)    179.97  0.000023   -0.04    179.94   
    36. D(H  11,C   3,C   2,C   1)    179.96 -0.000012    0.01    179.97   
    37. D(C   4,C   3,C   2,C   1)     -0.04  0.000000   -0.00     -0.04   
    38. D(H  11,C   3,C   2,N   7)     -0.03  0.000010   -0.02     -0.04   
    39. D(H  10,C   4,C   3,H  11)      0.05  0.000005   -0.01      0.04   
    40. D(H  10,C   4,C   3,C   2)   -179.95 -0.000008    0.01   -179.94   
    41. D(C   5,C   4,C   3,H  11)   -179.95  0.000030   -0.05   -180.00   
    42. D(C   5,C   4,C   3,C   2)      0.05  0.000017   -0.03      0.02   
    43. D(H   9,C   5,C   0,C   1)    179.98  0.000034   -0.05    179.92   
    44. D(C   4,C   5,C   0,H   6)    179.96 -0.000041    0.06    180.02   
    45. D(C   4,C   5,C   0,C   1)     -0.02  0.000002   -0.01     -0.03   
    46. D(H   9,C   5,C   4,H  10)     -0.02 -0.000037    0.05      0.03   
    47. D(H   9,C   5,C   4,C   3)    179.98 -0.000062    0.09    180.06   
    48. D(C   0,C   5,C   4,H  10)    179.98 -0.000005    0.00    179.98   
    49. D(C   0,C   5,C   4,C   3)     -0.02 -0.000030    0.04      0.01   
    50. D(H   9,C   5,C   0,H   6)     -0.04 -0.000009    0.01     -0.03   
    ----------------------------------------------------------------------------

         *************************************************************
         *                GEOMETRY OPTIMIZATION CYCLE   2            *
         *************************************************************
---------------------------------
CARTESIAN COORDINATES (ANGSTROEM)
---------------------------------
  C     -1.942641    0.087193   -1.089411
  C     -0.567801    0.035800   -0.951377
  C      0.081560    0.831538    0.014758
  C     -0.646523    1.699687    0.866510
  C     -2.031344    1.742785    0.717485
  C     -2.667906    0.945596   -0.249113
  H     -2.453659   -0.518916   -1.828716
  N      1.444050    0.766619    0.134695
  N      2.607847    0.711714    0.235585
  H     -3.746478    0.992546   -0.352043
  H     -2.620651    2.394086    1.348993
  H     -0.135555    2.303153    1.602434

----------------------------
CARTESIAN COORDINATES (A.U.)
----------------------------
  NO LB      ZA    FRAG    MASS        X           Y           Z
   0 C     6.0000    0    12.011         -3.671059187630663          0.164770808778918         -2.058689036553353
   1 C     6.0000    0    12.011         -1.072987769242511          0.067652493421222         -1.797841346140979
   2 C     6.0000    0    12.011          0.154126788012125          1.571378295231594          0.027888778670637
   3 C     6.0000    0    12.011         -1.221752339964935          3.211942783710773          1.637466208499782
   4 C     6.0000    0    12.011         -3.838683501956080          3.293385519503846          1.355849773805400
   5 C     6.0000    0    12.011         -5.041611054627348          1.786916985609901         -0.470755013799586
   6 H     1.0000    0     1.008         -4.636742701554258         -0.980609739849195         -3.455773310440919
   7 N     7.0000    0    14.007          2.728858950140999          1.448700788741712          0.254536380541720
   8 N     7.0000    0    14.007          4.928116650485579          1.344944007549807          0.445190899998188
   9 H     1.0000    0     1.008         -7.079817190710763          1.875640162068456         -0.665264884516253
  10 H     1.0000    0     1.008         -4.952313243452412          4.524167580589482          2.549228257804914
  11 H     1.0000    0     1.008         -0.256162024100676          4.352328167400350          3.028162107168230

--------------------------------
INTERNAL COORDINATES (ANGSTROEM)
--------------------------------
 C      0   0   0   0.000000     0.000     0.000
 C      1   0   0   1.382708     0.000     0.000
 C      2   1   0   1.410065   120.353     0.000
 C      3   2   1   1.417487   121.386     0.029
 C      4   3   2   1.393482   117.719   359.957
 C      1   2   3   1.403198   118.482     0.000
 H      1   2   3   1.084011   121.067   179.955
 N      3   2   1   1.369298   119.438   180.048
 N      8   3   2   1.169452   179.920    61.642
 H      6   1   2   1.084489   118.927   179.922
 H      5   4   3   1.081795   119.838   180.056
 H      4   3   2   1.080206   120.568   179.974

---------------------------
INTERNAL COORDINATES (A.U.)
---------------------------
 C      0   0   0   0.000000     0.000     0.000
 C      1   0   0   2.612939     0.000     0.000
 C      2   1   0   2.664637   120.353     0.000
 C      3   2   1   2.678663   121.386     0.029
 C      4   3   2   2.633300   117.719   359.957
 C      1   2   3   2.651661   118.482     0.000
 H      1   2   3   2.048484   121.067   179.955
 N      3   2   1   2.587598   119.438   180.048
 N      8   3   2   2.209943   179.920    61.642
 H      6   1   2   2.049388   118.927   179.922
 H      5   4   3   2.044296   119.838   180.056
 H      4   3   2   2.041293   120.568   179.974


Diagonalization of the overlap matrix:
Smallest eigenvalue                        ... 2.283e-03
Time for diagonalization                   ...    0.002 sec
Threshold for overlap eigenvalues          ... 1.000e-08
Number of eigenvalues below threshold      ... 0
Time for construction of square roots      ...    0.001 sec
Total time needed                          ...    0.002 sec

-------------------
DFT GRID GENERATION
-------------------

General Integration Accuracy     IntAcc      ...  4.340
Radial Grid Type                 RadialGrid  ... Gauss-Chebyshev
Angular Grid (max. acc.)         AngularGrid ... Lebedev-110
Angular grid pruning method      GridPruning ... 3 (G Style)
Weight generation scheme         WeightScheme... Becke
Basis function cutoff            BFCut       ...    1.0000e-11
Integration weight cutoff        WCut        ...    1.0000e-14
Grids for H and He will be reduced by one unit

# of grid points (after initial pruning)     ...  16516 (   0.0 sec)
# of grid points (after weights+screening)   ...  15524 (   0.0 sec)
nearest neighbour list constructed           ...    0.0 sec
Grid point re-assignment to atoms done       ...    0.0 sec
Grid point division into batches done        ...    0.0 sec
Reduced shell lists constructed in    0.1 sec

Total number of grid points                  ...    15524
Total number of batches                      ...      250
Average number of points per batch           ...       62
Average number of grid points per atom       ...     1294
Average number of shells per batch           ...    32.08 (66.83%)
Average number of basis functions per batch  ...    57.30 (71.62%)
Average number of large shells per batch     ...    25.42 (79.23%)
Average number of large basis fcns per batch ...    46.08 (80.42%)
Maximum spatial batch extension              ...  22.02, 21.03, 20.05 au
Average spatial batch extension              ...   3.55,  4.75,  4.70 au

Time for grid setup =    0.141 sec

--------------
SCF ITERATIONS
--------------
ITER       Energy         Delta-E        Max-DP      RMS-DP      [F,P]     Damp
               ***  Starting incremental Fock matrix formation  ***
  0   -338.4835662282   0.000000000000 0.00494474  0.00022335  0.0186709 0.7000
  1   -338.4843475169  -0.000781288681 0.00414724  0.00019155  0.0127482 0.7000
                               ***Turning on DIIS***
  2   -338.4849281352  -0.000580618314 0.01002666  0.00048619  0.0085185 0.0000
  3   -338.4863496385  -0.001421503288 0.00129641  0.00007559  0.0012739 0.0000
  4   -338.4863755437  -0.000025905189 0.00089339  0.00006255  0.0005979 0.0000
  5   -338.4863853304  -0.000009786700 0.00044402  0.00002166  0.0007353 0.0000
  6   -338.4863872017  -0.000001871343 0.00027692  0.00001625  0.0002611 0.0000
  7   -338.4863877413  -0.000000539547 0.00008550  0.00000471  0.0002407 0.0000
  8   -338.4863879503  -0.000000209044 0.00006856  0.00000307  0.0001092 0.0000
  9   -338.4863879954  -0.000000045056 0.00001984  0.00000151  0.0000301 0.0000
 10   -338.4863880054  -0.000000010034 0.00002017  0.00000103  0.0000162 0.0000
                 **** Energy Check signals convergence ****

               *****************************************************
               *                     SUCCESS                       *
               *           SCF CONVERGED AFTER  11 CYCLES          *
               *****************************************************

Setting up the final grid:

General Integration Accuracy     IntAcc      ...  4.670
Radial Grid Type                 RadialGrid  ... Gauss-Chebyshev
Angular Grid (max. acc.)         AngularGrid ... Lebedev-302
Angular grid pruning method      GridPruning ... 3 (G Style)
Weight generation scheme         WeightScheme... Becke
Basis function cutoff            BFCut       ...    1.0000e-11
Integration weight cutoff        WCut        ...    1.0000e-14
Grids for H and He will be reduced by one unit

# of grid points (after initial pruning)     ...  63272 (   0.0 sec)
# of grid points (after weights+screening)   ...  59002 (   0.1 sec)
nearest neighbour list constructed           ...    0.0 sec
Grid point re-assignment to atoms done       ...    0.0 sec
Grid point division into batches done        ...    0.2 sec
Reduced shell lists constructed in    0.5 sec

Total number of grid points                  ...    59002
Total number of batches                      ...      928
Average number of points per batch           ...       63
Average number of grid points per atom       ...     4917
Average number of shells per batch           ...    28.95 (60.31%)
Average number of basis functions per batch  ...    51.91 (64.88%)
Average number of large shells per batch     ...    22.62 (78.12%)
Average number of large basis fcns per batch ...    41.24 (79.45%)
Maximum spatial batch extension              ...  18.55, 19.48, 20.10 au
Average spatial batch extension              ...   2.60,  3.02,  2.98 au

Final grid set up in    0.7 sec
Final integration                            ... done (   0.6 sec)
Change in XC energy                          ...     0.000566883
Integrated number of electrons               ...    53.999995005
Previous integrated no of electrons          ...    54.008735889
Total Energy       :         -338.48582113 Eh           -9210.66745 eV
  Last Energy change         ...   -4.9678e-09  Tolerance :   1.0000e-08
  Last MAX-Density change    ...    1.0888e-05  Tolerance :   1.0000e-07
             **** THE GBW FILE WAS UPDATED (t-C6H4-N2-B3LYPG-3-21G.gbw) ****
             **** DENSITY FILE WAS UPDATED (t-C6H4-N2-B3LYPG-3-21G.scfp.tmp) ****
             **** ENERGY FILE WAS UPDATED (t-C6H4-N2-B3LYPG-3-21G.en.tmp) ****
----------------------
UHF SPIN CONTAMINATION
----------------------

Warning: in a DFT calculation there is little theoretical justification to 
         calculate <S**2> as in Hartree-Fock theory. We will do it anyways
         but you should keep in mind that the values have only limited relevance

Expectation value of <S**2>     :     2.040179
Ideal value S*(S+1) for S=1.0   :     2.000000
Deviation                       :     0.040179

Total SCF time: 0 days 0 hours 0 min 8 sec 

-------------------------   --------------------
FINAL SINGLE POINT ENERGY      -338.485821127451
-------------------------   --------------------

------------------------------------------------------------------------------
                         ORCA SCF GRADIENT CALCULATION
------------------------------------------------------------------------------

Gradient of the Kohn-Sham DFT energy:
Kohn-Sham wavefunction type      ... UKS
Hartree-Fock exchange scaling    ...    0.200
Number of operators              ...    2
Number of atoms                  ...   12
Basis set dimensions             ...   80
Integral neglect threshold       ... 2.5e-11
Integral primitive cutoff        ... 2.5e-12

Nuclear repulsion gradient       ... done
One Electron Gradient            ... done
Pre-screening matrix             ... done
Starting the two electron gradient:
Two electron gradient done
Exchange-correlation gradient    ... done

------------------
CARTESIAN GRADIENT
------------------

   1   C   :   -0.013286379    0.005884611    0.004598274
   2   C   :    0.021794931   -0.010970226   -0.009032358
   3   C   :   -0.044065432    0.007264196    0.001824078
   4   C   :    0.019627718   -0.000587339    0.002103399
   5   C   :   -0.009105038    0.003554527    0.002650046
   6   C   :    0.011162041   -0.003868005   -0.002707283
   7   H   :    0.000278654   -0.000183819   -0.000099836
   8   N   :    0.028707831   -0.001548981    0.002271819
   9   N   :   -0.013278589    0.000592115   -0.001215098
  10   H   :   -0.000091771    0.000181996    0.000258002
  11   H   :    0.000207675   -0.000623921   -0.000693958
  12   H   :   -0.001951640    0.000304846    0.000042916

Norm of the cartesian gradient     ...    0.067538582
RMS gradient                       ...    0.011256430
MAX gradient                       ...    0.044065432

-------
TIMINGS
-------

Total SCF gradient time            ...        4.558 sec

One electron gradient       ....       0.031 sec  (  0.7%)
Prescreening matrices       ....       0.006 sec  (  0.1%)
Two electron gradient       ....       1.124 sec  ( 24.7%)
XC gradient                 ....       3.309 sec  ( 72.6%)
------------------------------------------------------------------------------
                         ORCA GEOMETRY RELAXATION STEP
------------------------------------------------------------------------------

Reading the OPT-File                    .... done
Getting information on internals        .... done
Copying old internal coords+grads       .... done
Making the new internal coordinates     .... (new redundants).... done
Validating the new internal coordinates .... (new redundants).... done
Calculating the B-matrix                .... done
Calculating the G,G- and P matrices     .... done
Transforming gradient to internals      .... done
Projecting the internal gradient        .... done
Number of atoms                         ....  12
Number of internal coordinates          ....  50
Current Energy                          ....  -338.485821127 Eh
Current gradient norm                   ....     0.067538582 Eh/bohr
Maximum allowed component of the step   ....  0.300
Current trust radius                    ....  0.300
Updating the Hessian (BFGS)             .... done
Forming the augmented Hessian           .... done
Diagonalizing the augmented Hessian     .... done
Last element of RFO vector              ....  0.989911199
Lowest eigenvalues of augmented Hessian:
 -0.005249149  0.023104359  0.023508494  0.024961314  0.025032725
Length of the computed step             ....  0.143133204
The final length of the internal step   ....  0.143133204
Converting the step to cartesian space:
 Initial RMS(Int)=    0.0202420918
Transforming coordinates:
 Iter   0:  RMS(Cart)=    0.0235022167 RMS(Int)=    1.2567447253
 Iter   1:  RMS(Cart)=    0.0006679588 RMS(Int)=    0.0004134875
 Iter   2:  RMS(Cart)=    0.0000205994 RMS(Int)=    0.0000119189
 Iter   3:  RMS(Cart)=    0.0000008007 RMS(Int)=    0.0000005188
 Iter   4:  RMS(Cart)=    0.0000000470 RMS(Int)=    0.0000000419
done
Storing new coordinates                 .... done

                                .--------------------.
          ----------------------|Geometry convergence|---------------------
          Item                value                 Tolerance   Converged
          -----------------------------------------------------------------
          Energy change      -0.00936617            0.00000100      NO
          RMS gradient        0.00533310            0.00003000      NO
          MAX gradient        0.01740467            0.00010000      NO
          RMS step            0.02024209            0.00060000      NO
          MAX step            0.07452700            0.00100000      NO
          ....................................................
          Max(Bonds)      0.0263      Max(Angles)    4.27
          Max(Dihed)        0.06      Max(Improp)    0.00
          -----------------------------------------------------------------

The optimization has not yet converged - more geometry cycles are needed


    ---------------------------------------------------------------------------
                         Redundant Internal Coordinates
                            (Angstroem and degrees)

        Definition                    Value    dE/dq     Step     New-Value
    ----------------------------------------------------------------------------
     1. B(C   1,C   0)                1.3827  0.007875 -0.0117    1.3710   
     2. B(C   2,C   1)                1.4101  0.000572 -0.0003    1.4097   
     3. B(C   3,C   2)                1.4175 -0.006559  0.0109    1.4284   
     4. B(C   4,C   3)                1.3935  0.002681 -0.0032    1.3902   
     5. B(C   5,C   4)                1.4054  0.000182  0.0006    1.4060   
     6. B(C   5,C   0)                1.4032 -0.003293  0.0053    1.4085   
     7. B(H   6,C   0)                1.0840  0.000039  0.0000    1.0840   
     8. B(N   7,C   2)                1.3693  0.015490 -0.0263    1.3430   
     9. B(N   8,N   7)                1.1695 -0.013347  0.0130    1.1825   
    10. B(H   9,C   5)                1.0845  0.000075  0.0014    1.0859   
    11. B(H  10,C   4)                1.0818 -0.000894  0.0032    1.0850   
    12. B(H  11,C   3)                1.0802 -0.000724  0.0027    1.0829   
    13. A(C   5,C   0,H   6)          120.45 -0.000236    0.04    120.49   
    14. A(C   1,C   0,H   6)          121.07 -0.000939    0.27    121.34   
    15. A(C   1,C   0,C   5)          118.48  0.001176   -0.31    118.17   
    16. A(C   0,C   1,C   2)          120.35 -0.015298    3.68    124.03   
    17. A(C   3,C   2,N   7)          119.18 -0.008141    2.00    121.17   
    18. A(C   1,C   2,N   7)          119.44 -0.009264    2.27    121.71   
    19. A(C   1,C   2,C   3)          121.39  0.017405   -4.27    117.12   
    20. A(C   2,C   3,C   4)          117.72 -0.006075    1.52    119.24   
    21. A(C   4,C   3,H  11)          121.71  0.001162   -0.21    121.50   
    22. A(C   2,C   3,H  11)          120.57  0.004913   -1.31    119.26   
    23. A(C   3,C   4,H  10)          119.84  0.002798   -0.74    119.10   
    24. A(C   3,C   4,C   5)          120.41 -0.004907    1.31    121.72   
    25. A(C   5,C   4,H  10)          119.75  0.002108   -0.57    119.18   
    26. A(C   4,C   5,H   9)          119.42 -0.004175    1.08    120.50   
    27. A(C   0,C   5,H   9)          118.93 -0.003524    0.86    119.78   
    28. A(C   0,C   5,C   4)          121.65  0.007699   -1.93    119.72   
    29. L(C   2,N   7,N   8,C   1, 2) 179.86  0.000003   -0.00    179.86   
    30. L(C   2,N   7,N   8,C   1, 1) 179.96 -0.000157    0.03    179.99   
    31. D(C   2,C   1,C   0,H   6)    179.96  0.000024   -0.05    179.90   
    32. D(C   2,C   1,C   0,C   5)      0.01  0.000015   -0.04     -0.03   
    33. D(N   7,C   2,C   1,C   0)   -179.95 -0.000010    0.02   -179.93   
    34. D(C   3,C   2,C   1,C   0)      0.03 -0.000014    0.04      0.07   
    35. D(C   4,C   3,C   2,N   7)    179.94 -0.000000    0.01    179.94   
    36. D(H  11,C   3,C   2,C   1)    179.97  0.000002   -0.02    179.96   
    37. D(C   4,C   3,C   2,C   1)     -0.04  0.000004   -0.02     -0.06   
    38. D(H  11,C   3,C   2,N   7)     -0.04 -0.000003    0.01     -0.03   
    39. D(H  10,C   4,C   3,H  11)      0.04  0.000007   -0.02      0.02   
    40. D(H  10,C   4,C   3,C   2)   -179.94  0.000004   -0.02   -179.96   
    41. D(C   5,C   4,C   3,H  11)   -180.00  0.000004   -0.01   -180.01   
    42. D(C   5,C   4,C   3,C   2)      0.02  0.000001   -0.01      0.02   
    43. D(H   9,C   5,C   0,C   1)    179.92  0.000010   -0.02    179.90   
    44. D(C   4,C   5,C   0,H   6)   -179.98 -0.000012    0.03   -179.95   
    45. D(C   4,C   5,C   0,C   1)     -0.03 -0.000003    0.01     -0.01   
    46. D(H   9,C   5,C   4,H  10)      0.03 -0.000023    0.06      0.09   
    47. D(H   9,C   5,C   4,C   3)   -179.94 -0.000020    0.05   -179.89   
    48. D(C   0,C   5,C   4,H  10)    179.98 -0.000009    0.02    180.00   
    49. D(C   0,C   5,C   4,C   3)      0.01 -0.000006    0.01      0.02   
    50. D(H   9,C   5,C   0,H   6)     -0.03  0.000002   -0.01     -0.03   
    ----------------------------------------------------------------------------

         *************************************************************
         *                GEOMETRY OPTIMIZATION CYCLE   3            *
         *************************************************************
---------------------------------
CARTESIAN COORDINATES (ANGSTROEM)
---------------------------------
  C     -1.946865    0.091525   -1.084949
  C     -0.585328    0.059667   -0.926898
  C      0.118416    0.831710    0.020020
  C     -0.651132    1.694090    0.859596
  C     -2.032406    1.734105    0.707932
  C     -2.692992    0.946794   -0.251168
  H     -2.442580   -0.520813   -1.829574
  N      1.454909    0.763616    0.132805
  N      2.631846    0.704565    0.230995
  H     -3.772873    0.994301   -0.354599
  H     -2.614842    2.390303    1.346268
  H     -0.145254    2.301937    1.599372

----------------------------
CARTESIAN COORDINATES (A.U.)
----------------------------
  NO LB      ZA    FRAG    MASS        X           Y           Z
   0 C     6.0000    0    12.011         -3.679042063490157          0.172956757069085         -2.050255842945877
   1 C     6.0000    0    12.011         -1.106109091115009          0.112753685589621         -1.751583792401336
   2 C     6.0000    0    12.011          0.223774358655396          1.571703784746630          0.037833059763633
   3 C     6.0000    0    12.011         -1.230460883455349          3.201366425529142          1.624401150094476
   4 C     6.0000    0    12.011         -3.840691492974859          3.276984337865523          1.337797176903984
   5 C     6.0000    0    12.011         -5.089016479337341          1.789181578108057         -0.474639234447738
   6 H     1.0000    0     1.008         -4.615807003707029         -0.984193314725395         -3.457392976258788
   7 N     7.0000    0    14.007          2.749379660618396          1.443024395264375          0.250964334140844
   8 N     7.0000    0    14.007          4.973467449545834          1.331434144642795          0.436517483636158
   9 H     1.0000    0     1.008         -7.129696930459250          1.878957160032250         -0.670095615658634
  10 H     1.0000    0     1.008         -4.941334635260168          4.517017606262492          2.544077551852558
  11 H     1.0000    0     1.008         -0.274489513621404          4.350031292372288          3.022375520358501

--------------------------------
INTERNAL COORDINATES (ANGSTROEM)
--------------------------------
 C      0   0   0   0.000000     0.000     0.000
 C      1   0   0   1.371050     0.000     0.000
 C      2   1   0   1.409951   124.081     0.000
 C      3   2   1   1.428563   117.154     0.072
 C      4   3   2   1.390152   119.242   359.939
 C      5   4   3   1.405740   121.684     0.000
 H      1   2   3   1.084046   121.343   179.899
 N      3   2   1   1.342971   121.692   180.066
 N      8   3   2   1.182501   179.930    81.409
 H      6   5   4   1.085863   120.518   180.111
 H      5   4   3   1.085034   119.116   180.039
 H      4   3   2   1.082894   119.255   179.959

---------------------------
INTERNAL COORDINATES (A.U.)
---------------------------
 C      0   0   0   0.000000     0.000     0.000
 C      1   0   0   2.590910     0.000     0.000
 C      2   1   0   2.664421   124.081     0.000
 C      3   2   1   2.699592   117.154     0.072
 C      4   3   2   2.627007   119.242   359.939
 C      5   4   3   2.656463   121.684     0.000
 H      1   2   3   2.048551   121.343   179.899
 N      3   2   1   2.537847   121.692   180.066
 N      8   3   2   2.234603   179.930    81.409
 H      6   5   4   2.051984   120.518   180.111
 H      5   4   3   2.050417   119.116   180.039
 H      4   3   2   2.046374   119.255   179.959


Diagonalization of the overlap matrix:
Smallest eigenvalue                        ... 2.159e-03
Time for diagonalization                   ...    0.001 sec
Threshold for overlap eigenvalues          ... 1.000e-08
Number of eigenvalues below threshold      ... 0
Time for construction of square roots      ...    0.000 sec
Total time needed                          ...    0.002 sec

-------------------
DFT GRID GENERATION
-------------------

General Integration Accuracy     IntAcc      ...  4.340
Radial Grid Type                 RadialGrid  ... Gauss-Chebyshev
Angular Grid (max. acc.)         AngularGrid ... Lebedev-110
Angular grid pruning method      GridPruning ... 3 (G Style)
Weight generation scheme         WeightScheme... Becke
Basis function cutoff            BFCut       ...    1.0000e-11
Integration weight cutoff        WCut        ...    1.0000e-14
[...]
Rotational entropy                ...      0.02031812 Eh     12.75 kcal/mol
Translational entropy             ...      0.03176827 Eh     19.93 kcal/mol
-----------------------------------------------------------------------
Final entropy term                ...      0.07184479 Eh     45.08 kcal/mol


CAUTION: The rotational entropy is not quite correctly treated here
         because it includes a symmetry number that is not yet correctly
         implemented in ORCA!
For a nonlinear molecule the correct rotational entropy is:
    S(rot) = R*(ln(qrot/sn)+1.5)
    R    = 8.31441 J/mol/K = 1.987191683e-3 kcal/mol/K
    qrot = 518530.0137348
    sn is the rotational symmetry number. We have assumed 3 here
       if it is different for your molecule then you should correct
       the printed rotational entropy by manually evaluating the equation
       as given above

For convenience we print out the resulting values for sn=1 - 12:
 sn= 1  qrot/sn=  518530.0137 T*S(rot)=    13.78 kcal/mol T*S(tot)=    46.12 kcal/mol
 sn= 2  qrot/sn=  259265.0069 T*S(rot)=    13.13 kcal/mol T*S(tot)=    45.46 kcal/mol
 sn= 3  qrot/sn=  172843.3379 T*S(rot)=    12.75 kcal/mol T*S(tot)=    45.08 kcal/mol
 sn= 4  qrot/sn=  129632.5034 T*S(rot)=    12.48 kcal/mol T*S(tot)=    44.81 kcal/mol
 sn= 5  qrot/sn=  103706.0027 T*S(rot)=    12.27 kcal/mol T*S(tot)=    44.60 kcal/mol
 sn= 6  qrot/sn=   86421.6690 T*S(rot)=    12.10 kcal/mol T*S(tot)=    44.43 kcal/mol
 sn= 7  qrot/sn=   74075.7162 T*S(rot)=    11.95 kcal/mol T*S(tot)=    44.29 kcal/mol
 sn= 8  qrot/sn=   64816.2517 T*S(rot)=    11.83 kcal/mol T*S(tot)=    44.16 kcal/mol
 sn= 9  qrot/sn=   57614.4460 T*S(rot)=    11.72 kcal/mol T*S(tot)=    44.05 kcal/mol
 sn=10  qrot/sn=   51853.0014 T*S(rot)=    11.62 kcal/mol T*S(tot)=    43.95 kcal/mol
 sn=11  qrot/sn=   47139.0922 T*S(rot)=    11.53 kcal/mol T*S(tot)=    43.86 kcal/mol
 sn=12  qrot/sn=   43210.8345 T*S(rot)=    11.45 kcal/mol T*S(tot)=    43.78 kcal/mol


-------------------
GIBBS FREE ENTHALPY
-------------------

The Gibbs free enthalpy is G = H - T*S

Total enthalpy                    ...   -338.38874928 Eh 
Total entropy correction          ...     -0.07184479 Eh    -45.08 kcal/mol
-----------------------------------------------------------------------
Final Gibbs free enthalpy         ...   -338.46059408 Eh

For completeness - the Gibbs free enthalpy minus the electronic energy
G-E(el)                           ...      0.02855765 Eh     17.92 kcal/mol


The first frequency considered to be a vibration is 6
The total number of vibrations considered is 30


--------------------------
THERMOCHEMISTRY AT 523.15K
--------------------------

Temperature         ... 523.15 K
Pressure            ... 1.00 atm
Total Mass          ... 104.11 AMU

Throughout the following assumptions are being made:
  (1) The electronic state is orbitally nondegenerate
      but the spin degeneracy is treated
  (2) There are no thermally accessible electronically excited states
  (3) Hindered rotations indicated by low frequency modes) are not
      treated as such but are treated as vibrations and this may
      case some error
  (4) All equations used are the standard statistical mechanics
      equations for an ideal gas
  (5) All vibrations are strinctly harmonic


------------
INNER ENERGY
------------

The inner energy is: U= E(el) + E(ZPE) + E(vib) + E(rot) + E(trans)
    E(el)   - is the total energy from the electronic structure calculation
              = E(kin-el) + E(nuc-el) + E(el-el) + E(nuc-nuc)
    E(ZPE)  - the the zero temperature vibrational energy from the frequency calculation
    E(vib)  - the the finite temperature correction to E(ZPE) due to population
              of excietd vibrational states
    E(rot)  - is the rotational thermal energy
    E(trans)- is the translational thermal energy

Summary of contributions to the inner energy U:
Electronic energy                ...   -338.48915173 Eh
Zero point energy                ...      0.08423747 Eh      52.86 kcal/mol
Thermal vibrational correction   ...      0.01254942 Eh       7.87 kcal/mol
Thermal rotational correction    ...      0.00248507 Eh       1.56 kcal/mol
Thermal translational correction ...      0.00248507 Eh       1.56 kcal/mol
-----------------------------------------------------------------------
Total thermal energy                   -338.38739470 Eh


Summary of corrections to the electronic energy:
(perhaps to be used in another calculation)
Total thermal correction                  0.01751956 Eh      10.99 kcal/mol
Non-thermal (ZPE) correction              0.08423747 Eh      52.86 kcal/mol
-----------------------------------------------------------------------
Total correction                          0.10175703 Eh      63.85 kcal/mol


--------
ENTHALPY
--------

The enthalpy is H = U + kB*T
                kB is Boltzmann's constant
Total free energy                 ...   -338.38739470 Eh 
Thermal Enthalpy correction       ...      0.00165676 Eh       1.04 kcal/mol
-----------------------------------------------------------------------
Total Enthalpy                    ...   -338.38573794 Eh


-------
ENTROPY
-------

The entropy contributions are T*S = T*(S(el)+S(vib)+S(rot)+S(trans)
     S(el)   - electronic entropy
     S(vib)  - vibrational entropy
     S(rot)  - rotational entropy
     S(trans)- translational entropy
The entropies will be listed as mutliplied by the temperature to get
units of energy

Electronic entropy                ...      0.00182008 Eh      1.14 kcal/mol
Vibrational entropy               ...      0.02252387 Eh     14.13 kcal/mol
Rotational entropy                ...      0.02271487 Eh     14.25 kcal/mol
Translational entropy             ...      0.03554144 Eh     22.30 kcal/mol
-----------------------------------------------------------------------
Final entropy term                ...      0.08260025 Eh     51.83 kcal/mol


CAUTION: The rotational entropy is not quite correctly treated here
         because it includes a symmetry number that is not yet correctly
         implemented in ORCA!
For a nonlinear molecule the correct rotational entropy is:
    S(rot) = R*(ln(qrot/sn)+1.5)
    R    = 8.31441 J/mol/K = 1.987191683e-3 kcal/mol/K
    qrot = 602857.9289999
    sn is the rotational symmetry number. We have assumed 3 here
       if it is different for your molecule then you should correct
       the printed rotational entropy by manually evaluating the equation
       as given above

For convenience we print out the resulting values for sn=1 - 12:
 sn= 1  qrot/sn=  602857.9290 T*S(rot)=    15.40 kcal/mol T*S(tot)=    52.97 kcal/mol
 sn= 2  qrot/sn=  301428.9645 T*S(rot)=    14.68 kcal/mol T*S(tot)=    52.25 kcal/mol
 sn= 3  qrot/sn=  200952.6430 T*S(rot)=    14.25 kcal/mol T*S(tot)=    51.83 kcal/mol
 sn= 4  qrot/sn=  150714.4822 T*S(rot)=    13.95 kcal/mol T*S(tot)=    51.53 kcal/mol
 sn= 5  qrot/sn=  120571.5858 T*S(rot)=    13.72 kcal/mol T*S(tot)=    51.30 kcal/mol
 sn= 6  qrot/sn=  100476.3215 T*S(rot)=    13.53 kcal/mol T*S(tot)=    51.11 kcal/mol
 sn= 7  qrot/sn=   86122.5613 T*S(rot)=    13.37 kcal/mol T*S(tot)=    50.95 kcal/mol
 sn= 8  qrot/sn=   75357.2411 T*S(rot)=    13.23 kcal/mol T*S(tot)=    50.81 kcal/mol
 sn= 9  qrot/sn=   66984.2143 T*S(rot)=    13.11 kcal/mol T*S(tot)=    50.69 kcal/mol
 sn=10  qrot/sn=   60285.7929 T*S(rot)=    13.00 kcal/mol T*S(tot)=    50.58 kcal/mol
 sn=11  qrot/sn=   54805.2663 T*S(rot)=    12.90 kcal/mol T*S(tot)=    50.48 kcal/mol
 sn=12  qrot/sn=   50238.1607 T*S(rot)=    12.81 kcal/mol T*S(tot)=    50.39 kcal/mol


-------------------
GIBBS FREE ENTHALPY
-------------------

The Gibbs free enthalpy is G = H - T*S

Total enthalpy                    ...   -338.38573794 Eh 
Total entropy correction          ...     -0.08260025 Eh    -51.83 kcal/mol
-----------------------------------------------------------------------
Final Gibbs free enthalpy         ...   -338.46833820 Eh

For completeness - the Gibbs free enthalpy minus the electronic energy
G-E(el)                           ...      0.02081353 Eh     13.06 kcal/mol


The first frequency considered to be a vibration is 6
The total number of vibrations considered is 30


--------------------------
THERMOCHEMISTRY AT 573.15K
--------------------------

Temperature         ... 573.15 K
Pressure            ... 1.00 atm
Total Mass          ... 104.11 AMU

Throughout the following assumptions are being made:
  (1) The electronic state is orbitally nondegenerate
      but the spin degeneracy is treated
  (2) There are no thermally accessible electronically excited states
  (3) Hindered rotations indicated by low frequency modes) are not
      treated as such but are treated as vibrations and this may
      case some error
  (4) All equations used are the standard statistical mechanics
      equations for an ideal gas
  (5) All vibrations are strinctly harmonic


------------
INNER ENERGY
------------

The inner energy is: U= E(el) + E(ZPE) + E(vib) + E(rot) + E(trans)
    E(el)   - is the total energy from the electronic structure calculation
              = E(kin-el) + E(nuc-el) + E(el-el) + E(nuc-nuc)
    E(ZPE)  - the the zero temperature vibrational energy from the frequency calculation
    E(vib)  - the the finite temperature correction to E(ZPE) due to population
              of excietd vibrational states
    E(rot)  - is the rotational thermal energy
    E(trans)- is the translational thermal energy

Summary of contributions to the inner energy U:
Electronic energy                ...   -338.48915173 Eh
Zero point energy                ...      0.08423747 Eh      52.86 kcal/mol
Thermal vibrational correction   ...      0.01511696 Eh       9.49 kcal/mol
Thermal rotational correction    ...      0.00272258 Eh       1.71 kcal/mol
Thermal translational correction ...      0.00272258 Eh       1.71 kcal/mol
-----------------------------------------------------------------------
Total thermal energy                   -338.38435215 Eh


Summary of corrections to the electronic energy:
(perhaps to be used in another calculation)
Total thermal correction                  0.02056211 Eh      12.90 kcal/mol
Non-thermal (ZPE) correction              0.08423747 Eh      52.86 kcal/mol
-----------------------------------------------------------------------
Total correction                          0.10479958 Eh      65.76 kcal/mol


--------
ENTHALPY
--------

The enthalpy is H = U + kB*T
                kB is Boltzmann's constant
Total free energy                 ...   -338.38435215 Eh 
Thermal Enthalpy correction       ...      0.00181510 Eh       1.14 kcal/mol
-----------------------------------------------------------------------
Total Enthalpy                    ...   -338.38253705 Eh


-------
ENTROPY
-------

The entropy contributions are T*S = T*(S(el)+S(vib)+S(rot)+S(trans)
     S(el)   - electronic entropy
     S(vib)  - vibrational entropy
     S(rot)  - rotational entropy
     S(trans)- translational entropy
The entropies will be listed as mutliplied by the temperature to get
units of energy

Electronic entropy                ...      0.00199404 Eh      1.25 kcal/mol
Vibrational entropy               ...      0.02736157 Eh     17.17 kcal/mol
Rotational entropy                ...      0.02513435 Eh     15.77 kcal/mol
Translational entropy             ...      0.03935250 Eh     24.69 kcal/mol
-----------------------------------------------------------------------
Final entropy term                ...      0.09384246 Eh     58.89 kcal/mol


CAUTION: The rotational entropy is not quite correctly treated here
         because it includes a symmetry number that is not yet correctly
         implemented in ORCA!
For a nonlinear molecule the correct rotational entropy is:
    S(rot) = R*(ln(qrot/sn)+1.5)
    R    = 8.31441 J/mol/K = 1.987191683e-3 kcal/mol/K
    qrot = 691318.3391547
    sn is the rotational symmetry number. We have assumed 3 here
       if it is different for your molecule then you should correct
       the printed rotational entropy by manually evaluating the equation
       as given above

For convenience we print out the resulting values for sn=1 - 12:
 sn= 1  qrot/sn=  691318.3392 T*S(rot)=    17.02 kcal/mol T*S(tot)=    60.14 kcal/mol
 sn= 2  qrot/sn=  345659.1696 T*S(rot)=    16.23 kcal/mol T*S(tot)=    59.35 kcal/mol
 sn= 3  qrot/sn=  230439.4464 T*S(rot)=    15.77 kcal/mol T*S(tot)=    58.89 kcal/mol
 sn= 4  qrot/sn=  172829.5848 T*S(rot)=    15.44 kcal/mol T*S(tot)=    58.56 kcal/mol
 sn= 5  qrot/sn=  138263.6678 T*S(rot)=    15.19 kcal/mol T*S(tot)=    58.31 kcal/mol
 sn= 6  qrot/sn=  115219.7232 T*S(rot)=    14.98 kcal/mol T*S(tot)=    58.10 kcal/mol
 sn= 7  qrot/sn=   98759.7627 T*S(rot)=    14.81 kcal/mol T*S(tot)=    57.92 kcal/mol
 sn= 8  qrot/sn=   86414.7924 T*S(rot)=    14.65 kcal/mol T*S(tot)=    57.77 kcal/mol
 sn= 9  qrot/sn=   76813.1488 T*S(rot)=    14.52 kcal/mol T*S(tot)=    57.64 kcal/mol
 sn=10  qrot/sn=   69131.8339 T*S(rot)=    14.40 kcal/mol T*S(tot)=    57.52 kcal/mol
 sn=11  qrot/sn=   62847.1217 T*S(rot)=    14.29 kcal/mol T*S(tot)=    57.41 kcal/mol
 sn=12  qrot/sn=   57609.8616 T*S(rot)=    14.19 kcal/mol T*S(tot)=    57.31 kcal/mol


-------------------
GIBBS FREE ENTHALPY
-------------------

The Gibbs free enthalpy is G = H - T*S

Total enthalpy                    ...   -338.38253705 Eh 
Total entropy correction          ...     -0.09384246 Eh    -58.89 kcal/mol
-----------------------------------------------------------------------
Final Gibbs free enthalpy         ...   -338.47637951 Eh

For completeness - the Gibbs free enthalpy minus the electronic energy
G-E(el)                           ...      0.01277222 Eh      8.01 kcal/mol


The first frequency considered to be a vibration is 6
The total number of vibrations considered is 30


--------------------------
THERMOCHEMISTRY AT 623.15K
--------------------------

Temperature         ... 623.15 K
Pressure            ... 1.00 atm
Total Mass          ... 104.11 AMU

Throughout the following assumptions are being made:
  (1) The electronic state is orbitally nondegenerate
      but the spin degeneracy is treated
  (2) There are no thermally accessible electronically excited states
  (3) Hindered rotations indicated by low frequency modes) are not
      treated as such but are treated as vibrations and this may
      case some error
  (4) All equations used are the standard statistical mechanics
      equations for an ideal gas
  (5) All vibrations are strinctly harmonic


------------
INNER ENERGY
------------

The inner energy is: U= E(el) + E(ZPE) + E(vib) + E(rot) + E(trans)
    E(el)   - is the total energy from the electronic structure calculation
              = E(kin-el) + E(nuc-el) + E(el-el) + E(nuc-nuc)
    E(ZPE)  - the the zero temperature vibrational energy from the frequency calculation
    E(vib)  - the the finite temperature correction to E(ZPE) due to population
              of excietd vibrational states
    E(rot)  - is the rotational thermal energy
    E(trans)- is the translational thermal energy

Summary of contributions to the inner energy U:
Electronic energy                ...   -338.48915173 Eh
Zero point energy                ...      0.08423747 Eh      52.86 kcal/mol
Thermal vibrational correction   ...      0.01785363 Eh      11.20 kcal/mol
Thermal rotational correction    ...      0.00296009 Eh       1.86 kcal/mol
Thermal translational correction ...      0.00296009 Eh       1.86 kcal/mol
-----------------------------------------------------------------------
Total thermal energy                   -338.38114046 Eh


Summary of corrections to the electronic energy:
(perhaps to be used in another calculation)
Total thermal correction                  0.02377380 Eh      14.92 kcal/mol
Non-thermal (ZPE) correction              0.08423747 Eh      52.86 kcal/mol
-----------------------------------------------------------------------
Total correction                          0.10801127 Eh      67.78 kcal/mol


--------
ENTHALPY
--------

The enthalpy is H = U + kB*T
                kB is Boltzmann's constant
Total free energy                 ...   -338.38114046 Eh 
Thermal Enthalpy correction       ...      0.00197345 Eh       1.24 kcal/mol
-----------------------------------------------------------------------
Total Enthalpy                    ...   -338.37916701 Eh


-------
ENTROPY
-------

The entropy contributions are T*S = T*(S(el)+S(vib)+S(rot)+S(trans)
     S(el)   - electronic entropy
     S(vib)  - vibrational entropy
     S(rot)  - rotational entropy
     S(trans)- translational entropy
The entropies will be listed as mutliplied by the temperature to get
units of energy

Electronic entropy                ...      0.00216799 Eh      1.36 kcal/mol
Vibrational entropy               ...      0.03259999 Eh     20.46 kcal/mol
Rotational entropy                ...      0.02757459 Eh     17.30 kcal/mol
Translational entropy             ...      0.04319814 Eh     27.11 kcal/mol
-----------------------------------------------------------------------
Final entropy term                ...      0.10554070 Eh     66.23 kcal/mol


CAUTION: The rotational entropy is not quite correctly treated here
         because it includes a symmetry number that is not yet correctly
         implemented in ORCA!
For a nonlinear molecule the correct rotational entropy is:
    S(rot) = R*(ln(qrot/sn)+1.5)
    R    = 8.31441 J/mol/K = 1.987191683e-3 kcal/mol/K
    qrot = 783726.5001753
    sn is the rotational symmetry number. We have assumed 3 here
       if it is different for your molecule then you should correct
       the printed rotational entropy by manually evaluating the equation
       as given above

For convenience we print out the resulting values for sn=1 - 12:
 sn= 1  qrot/sn=  783726.5002 T*S(rot)=    18.66 kcal/mol T*S(tot)=    67.59 kcal/mol
 sn= 2  qrot/sn=  391863.2501 T*S(rot)=    17.81 kcal/mol T*S(tot)=    66.73 kcal/mol
 sn= 3  qrot/sn=  261242.1667 T*S(rot)=    17.30 kcal/mol T*S(tot)=    66.23 kcal/mol
 sn= 4  qrot/sn=  195931.6250 T*S(rot)=    16.95 kcal/mol T*S(tot)=    65.87 kcal/mol
 sn= 5  qrot/sn=  156745.3000 T*S(rot)=    16.67 kcal/mol T*S(tot)=    65.60 kcal/mol
 sn= 6  qrot/sn=  130621.0834 T*S(rot)=    16.44 kcal/mol T*S(tot)=    65.37 kcal/mol
 sn= 7  qrot/sn=  111960.9286 T*S(rot)=    16.25 kcal/mol T*S(tot)=    65.18 kcal/mol
 sn= 8  qrot/sn=   97965.8125 T*S(rot)=    16.09 kcal/mol T*S(tot)=    65.01 kcal/mol
 sn= 9  qrot/sn=   87080.7222 T*S(rot)=    15.94 kcal/mol T*S(tot)=    64.87 kcal/mol
 sn=10  qrot/sn=   78372.6500 T*S(rot)=    15.81 kcal/mol T*S(tot)=    64.74 kcal/mol
 sn=11  qrot/sn=   71247.8637 T*S(rot)=    15.69 kcal/mol T*S(tot)=    64.62 kcal/mol
 sn=12  qrot/sn=   65310.5417 T*S(rot)=    15.59 kcal/mol T*S(tot)=    64.51 kcal/mol


-------------------
GIBBS FREE ENTHALPY
-------------------

The Gibbs free enthalpy is G = H - T*S

Total enthalpy                    ...   -338.37916701 Eh 
Total entropy correction          ...     -0.10554070 Eh    -66.23 kcal/mol
-----------------------------------------------------------------------
Final Gibbs free enthalpy         ...   -338.48470771 Eh

For completeness - the Gibbs free enthalpy minus the electronic energy
G-E(el)                           ...      0.00444402 Eh      2.79 kcal/mol


Total Time for Numerical Frequencies  :       798.964 sec

Timings for individual modules:

Sum of individual times         ...      128.379 sec (=   2.140 min)
GTO integral calculation        ...        1.457 sec (=   0.024 min)   1.1 %
SCF iterations                  ...       81.117 sec (=   1.352 min)  63.2 %
SCF Gradient evaluation         ...       45.481 sec (=   0.758 min)  35.4 %
Geometry relaxation             ...        0.324 sec (=   0.005 min)   0.3 %
                             ****ORCA TERMINATED NORMALLY****
TOTAL RUN TIME: 0 days 0 hours 15 minutes 20 seconds 455 msec
