 Entering Gaussian System, Link 0=/home/ubuntu/g09/g09
 Input=2-HOOC-C6H3-IRC.gjf
 Output=2-HOOC-C6H3-IRC.log
 Initial command:
 /home/ubuntu/g09/l1.exe /home/ubuntu/g09/Gau-16146.inp -scrdir=/home/ubuntu/g09/
 Entering Link 1 = /home/ubuntu/g09/l1.exe PID=     16148.
  
 Copyright (c) 1988,1990,1992,1993,1995,1998,2003,2009,2010,
            Gaussian, Inc.  All Rights Reserved.
  
 This is part of the Gaussian(R) 09 program.  It is based on
 the Gaussian(R) 03 system (copyright 2003, Gaussian, Inc.),
 the Gaussian(R) 98 system (copyright 1998, Gaussian, Inc.),
 the Gaussian(R) 94 system (copyright 1995, Gaussian, Inc.),
 the Gaussian 92(TM) system (copyright 1992, Gaussian, Inc.),
 the Gaussian 90(TM) system (copyright 1990, Gaussian, Inc.),
 the Gaussian 88(TM) system (copyright 1988, Gaussian, Inc.),
 the Gaussian 86(TM) system (copyright 1986, Carnegie Mellon
 University), and the Gaussian 82(TM) system (copyright 1983,
 Carnegie Mellon University). Gaussian is a federally registered
 trademark of Gaussian, Inc.
  
 This software contains proprietary and confidential information,
 including trade secrets, belonging to Gaussian, Inc.
  
 This software is provided under written license and may be
 used, copied, transmitted, or stored only in accord with that
 written license.
  
 The following legend is applicable only to US Government
 contracts under FAR:
  
                    RESTRICTED RIGHTS LEGEND
  
 Use, reproduction and disclosure by the US Government is
 subject to restrictions as set forth in subparagraphs (a)
 and (c) of the Commercial Computer Software - Restricted
 Rights clause in FAR 52.227-19.
  
 Gaussian, Inc.
 340 Quinnipiac St., Bldg. 40, Wallingford CT 06492
  
  
 ---------------------------------------------------------------
 Warning -- This program may not be used in any manner that
 competes with the business of Gaussian, Inc. or will provide
 assistance to any competitor of Gaussian, Inc.  The licensee
 of this program is prohibited from giving any competitor of
 Gaussian, Inc. access to this program.  By using this program,
 the user acknowledges that Gaussian, Inc. is engaged in the
 business of creating and licensing software in the field of
 computational chemistry and represents and warrants to the
 licensee that it is not a competitor of Gaussian, Inc. and that
 it will not use this program in any manner prohibited above.
 ---------------------------------------------------------------
  

 Cite this work as:
 Gaussian 09, Revision B.01,
 M. J. Frisch, G. W. Trucks, H. B. Schlegel, G. E. Scuseria, 
 M. A. Robb, J. R. Cheeseman, G. Scalmani, V. Barone, B. Mennucci, 
 G. A. Petersson, H. Nakatsuji, M. Caricato, X. Li, H. P. Hratchian, 
 A. F. Izmaylov, J. Bloino, G. Zheng, J. L. Sonnenberg, M. Hada, 
 M. Ehara, K. Toyota, R. Fukuda, J. Hasegawa, M. Ishida, T. Nakajima, 
 Y. Honda, O. Kitao, H. Nakai, T. Vreven, J. A. Montgomery, Jr., 
 J. E. Peralta, F. Ogliaro, M. Bearpark, J. J. Heyd, E. Brothers, 
 K. N. Kudin, V. N. Staroverov, T. Keith, R. Kobayashi, J. Normand, 
 K. Raghavachari, A. Rendell, J. C. Burant, S. S. Iyengar, J. Tomasi, 
 M. Cossi, N. Rega, J. M. Millam, M. Klene, J. E. Knox, J. B. Cross, 
 V. Bakken, C. Adamo, J. Jaramillo, R. Gomperts, R. E. Stratmann, 
 O. Yazyev, A. J. Austin, R. Cammi, C. Pomelli, J. W. Ochterski, 
 R. L. Martin, K. Morokuma, V. G. Zakrzewski, G. A. Voth, 
 P. Salvador, J. J. Dannenberg, S. Dapprich, A. D. Daniels, 
 O. Farkas, J. B. Foresman, J. V. Ortiz, J. Cioslowski, 
 and D. J. Fox, Gaussian, Inc., Wallingford CT, 2010.
 
 ******************************************
 Gaussian 09:  EM64L-G09RevB.01 12-Aug-2010
                20-Dec-2018 
 ******************************************
 %chk=2-HOOC-C6H3-IRC.chk
 %mem=500MW
 %nproc=7
 Will use up to    7 processors via shared memory.
 ----------------------------------------------------------------------
 # rb3lyp/aug-cc-pVDZ irc=(calcfc,maxcycle=1000,maxpoints=10000,stepsiz
 e=1) scf=(xqc,maxcycle=1000) nosymm
 ----------------------------------------------------------------------
 1/6=1000,10=4,14=-1,18=10,26=3,38=1,39=1,42=10000,44=3/1,23;
 2/12=2,15=1,17=6,18=5,29=1,40=1/2;
 3/5=16,7=10,11=2,16=1,25=1,30=1,71=2,74=-5,116=1/1,2,3;
 4//1;
 5/5=2,7=1000,8=3,13=1,38=5/2,8;
 8/6=4,10=90,11=11/1;
 11/6=1,8=1,9=11,15=111,16=1,31=1/1,2,10;
 10/6=1,7=6,13=1,31=1/2;
 6/7=2,8=2,9=2,10=2,28=1/1;
 7/10=1,18=20,25=1,30=1/1,2,3,16;
 1/6=1000,10=4,14=-1,18=10,39=1,42=10000,44=3/23(3);
 2/15=1,29=1/2;
 7/9=1,25=1,30=1,44=-1/16;
 99/5=20/99;
 2/15=1,29=1/2;
 3/5=16,7=10,11=2,16=1,25=1,30=1,71=2,74=-5,116=1/1,2,3;
 4/5=5,16=3/1;
 5/5=2,7=1000,8=3,13=1,38=5/2,8;
 8/6=4,10=90,11=11/1;
 11/6=1,8=1,9=11,15=111,16=1,31=1/1,2,10;
 10/6=1,7=6,13=1,31=1/2;
 7/10=1,18=20,25=1,30=1/1,2,3,16;
 1/6=1000,14=-1,18=10,39=1,42=10000,44=3/23(-8);
 2/15=1,29=1/2;
 6/7=2,8=2,9=2,10=2,19=2,28=1/1;
 7/9=1,25=1,30=1,44=-1/16;
 99/5=20,9=1/99;
 -----------
 2-HOOC-C6H3
 -----------
 Symbolic Z-matrix:
 Charge =  0 Multiplicity = 1
 C                    -2.69341   0.24412   0. 
 C                    -1.70128   1.26413   0. 
 C                    -0.46882   0.74864   0. 
 C                     0.02748  -0.56927   0. 
 C                    -1.00097  -1.51898   0. 
 C                    -2.34718  -1.11115   0. 
 H                    -3.75394   0.51219   0. 
 H                    -0.72889  -2.57305   0. 
 N                     0.63372   1.92525   0. 
 N                     1.07015   2.94645   0. 
 H                    -3.12741  -1.8753    0. 
 C                     1.43501  -1.04079   0. 
 O                     1.77624  -2.20365  -0.00001 
 O                     2.34331  -0.02474   0.00001 
 H                     3.22172  -0.43882   0.00001 
 
 IRC-IRC-IRC-IRC-IRC-IRC-IRC-IRC-IRC-IRC-IRC-IRC-IRC-IRC-IRC-IRC-IRC-IRC
 ------------------------------------------------------------------------
 INPUT DATA FOR L123
 ------------------------------------------------------------------------
 GENERAL PARAMETERS:
 Follow reaction path in both directions.
 Maximum points per path      =****
 Step size                    =   0.010 bohr
 Integration scheme           = HPC                                 
    Redo corrector integration= Yes                                 
    Max correction cycles     =1000
 Initial Hessian              = CalcFC
 Hessian eveluation           = All updating
    Hessian updating method   = Bofill                              
 ------------------------------------------------------------------------
 IRC-IRC-IRC-IRC-IRC-IRC-IRC-IRC-IRC-IRC-IRC-IRC-IRC-IRC-IRC-IRC-IRC-IRC
                          Input orientation:                          
 ---------------------------------------------------------------------
 Center     Atomic      Atomic             Coordinates (Angstroms)
 Number     Number       Type             X           Y           Z
 ---------------------------------------------------------------------
      1          6           0       -2.693410    0.244120    0.000000
      2          6           0       -1.701280    1.264130    0.000000
      3          6           0       -0.468820    0.748640    0.000000
      4          6           0        0.027480   -0.569270    0.000000
      5          6           0       -1.000970   -1.518980    0.000000
      6          6           0       -2.347180   -1.111150    0.000000
      7          1           0       -3.753940    0.512190    0.000000
      8          1           0       -0.728890   -2.573050    0.000000
      9          7           0        0.633720    1.925250    0.000000
     10          7           0        1.070150    2.946450    0.000000
     11          1           0       -3.127410   -1.875300    0.000000
     12          6           0        1.435010   -1.040790    0.000000
     13          8           0        1.776240   -2.203650   -0.000010
     14          8           0        2.343310   -0.024740    0.000010
     15          1           0        3.221720   -0.438820    0.000010
 ---------------------------------------------------------------------
                    Distance matrix (angstroms):
                    1          2          3          4          5
     1  C    0.000000
     2  C    1.422934   0.000000
     3  C    2.281083   1.335922   0.000000
     4  C    2.839867   2.519914   1.408262   0.000000
     5  C    2.443947   2.869867   2.329224   1.399878   0.000000
     6  C    1.398797   2.461532   2.643304   2.435702   1.406630
     7  H    1.093885   2.186053   3.293618   3.933026   3.421183
     8  H    3.434499   3.958471   3.331855   2.141782   1.088619
     9  N    3.727733   2.426789   1.612453   2.567130   3.812471
    10  N    4.633246   3.242071   2.683057   3.667076   4.922357
    11  H    2.163399   3.448169   3.735393   3.414534   2.156087
    12  C    4.323754   3.892168   2.612782   1.484410   2.482471
    13  O    5.096013   4.911074   3.708950   2.393608   2.860362
    14  O    5.043891   4.244985   2.916538   2.378987   3.662917
    15  H    5.954424   5.209219   3.876873   3.196903   4.358653
                    6          7          8          9         10
     6  C    0.000000
     7  H    2.148070   0.000000
     8  H    2.180829   4.320837   0.000000
     9  N    4.255055   4.609588   4.700150   0.000000
    10  N    5.304928   5.403468   5.805293   1.110550   0.000000
    11  H    1.092101   2.468329   2.497950   5.346988   6.392870
    12  C    3.782844   5.416359   2.651468   3.072370   4.003899
    13  O    4.265694   6.161061   2.532219   4.284060   5.198278
    14  O    4.814663   6.120846   3.991528   2.593291   3.232477
    15  H    5.609338   7.040188   4.490240   3.505221   4.011148
                   11         12         13         14         15
    11  H    0.000000
    12  C    4.638112   0.000000
    13  O    4.914631   1.211892   0.000000
    14  O    5.775236   1.362852   2.251492   0.000000
    15  H    6.509603   1.885391   2.281236   0.971116   0.000000
 Symmetry turned off by external request.
 Stoichiometry    C7H4N2O2
 Framework group  C1[X(C7H4N2O2)]
 Deg. of freedom    39
 Full point group                 C1      NOp   1
 Rotational constants (GHZ):      1.4545695      1.1963693      0.6564475
 Standard basis: Aug-CC-pVDZ (5D, 7F)
 Integral buffers will be    131072 words long.
 Raffenetti 2 integral format.
 Two-electron integral symmetry is turned off.
   289 basis functions,   517 primitive gaussians,   311 cartesian basis functions
    38 alpha electrons       38 beta electrons
       nuclear repulsion energy       537.3784243355 Hartrees.
 NAtoms=   15 NActive=   15 NUniq=   15 SFac= 1.00D+00 NAtFMM=   50 NAOKFM=F Big=F
 One-electron integrals computed using PRISM.
 NBasis=   289 RedAO= T  NBF=   289
 NBsUse=   289 1.00D-06 NBFU=   289
 Harris functional with IExCor=  402 diagonalized for initial guess.
 ExpMin= 2.97D-02 ExpMax= 1.17D+04 ExpMxC= 4.01D+02 IAcc=3 IRadAn=         0 AccDes= 0.00D+00
 HarFok:  IExCor=  402 AccDes= 0.00D+00 IRadAn=         0 IDoV= 1
 ScaDFX=  1.000000  1.000000  1.000000  1.000000
 FoFCou: FMM=F IPFlag=           0 FMFlag=      100000 FMFlg1=           0
         NFxFlg=           0 DoJE=T BraDBF=F KetDBF=T FulRan=T
         Omega=  0.000000  0.000000  1.000000  0.000000  0.000000 ICntrl=     500 IOpCl=  0
         NMat0=    1 NMatS0=    1 NMatT0=    0 NMatD0=    1 NMtDS0=    0 NMtDT0=    0
         I1Cent=           4 NGrid=           0.
 Symmetry not used in FoFCou.
 Requested convergence on RMS density matrix=1.00D-08 within 128 cycles.
 Requested convergence on MAX density matrix=1.00D-06.
 Requested convergence on             energy=1.00D-06.
 No special actions if energy rises.
 EnCoef did     2 forward-backward iterations
 EnCoef did     2 forward-backward iterations
 SCF Done:  E(RB3LYP) =  -529.043571855     A.U. after   19 cycles
             Convg  =    0.2576D-08             -V/T =  2.0061
 QCSCF skips out because SCF is already converged.
 Range of M.O.s used for correlation:     1   289
 NBasis=   289 NAE=    38 NBE=    38 NFC=     0 NFV=     0
 NROrb=    289 NOA=    38 NOB=    38 NVA=   251 NVB=   251

 **** Warning!!: The largest alpha MO coefficient is  0.79850991D+02

 Symmetrizing basis deriv contribution to polar:
 IMax=3 JMax=2 DiffMx= 0.00D+00
 G2DrvN: will do    16 centers at a time, making    1 passes doing MaxLOS=2.
 Calling FoFCou, ICntrl=  3107 FMM=F I1Cent=   0 AccDes= 0.00D+00.
 FoFDir/FoFCou used for L=0 through L=2.
 End of G2Drv Frequency-dependent properties file   721 does not exist.
 End of G2Drv Frequency-dependent properties file   722 does not exist.
          IDoAtm=111111111111111
          Differentiating once with respect to nuclear coordinates.
          There are    48 degrees of freedom in the 1st order CPHF.  IDoFFX=5.
     42 vectors produced by pass  0 Test12= 1.99D-10 2.08D-07 XBig12= 1.08D+00 2.44D-01.
 AX will form    42 AO Fock derivatives at one time.
     42 vectors produced by pass  1 Test12= 1.99D-10 2.08D-07 XBig12= 4.15D-01 2.47D-01.
     42 vectors produced by pass  2 Test12= 1.99D-10 2.08D-07 XBig12= 4.03D-03 1.30D-02.
     42 vectors produced by pass  3 Test12= 1.99D-10 2.08D-07 XBig12= 3.51D-05 8.45D-04.
     42 vectors produced by pass  4 Test12= 1.99D-10 2.08D-07 XBig12= 1.31D-07 6.05D-05.
     19 vectors produced by pass  5 Test12= 1.99D-10 2.08D-07 XBig12= 2.83D-10 2.40D-06.
 Inverted reduced A of dimension   229 with in-core refinement.
 End of Minotr Frequency-dependent properties file   721 does not exist.
 End of Minotr Frequency-dependent properties file   722 does not exist.

 **********************************************************************

            Population analysis using the SCF density.

 **********************************************************************

 Alpha  occ. eigenvalues --  -19.22344 -19.16261 -14.52014 -14.49321 -10.34974
 Alpha  occ. eigenvalues --  -10.27730 -10.24217 -10.21976 -10.21375 -10.21283
 Alpha  occ. eigenvalues --  -10.16991  -1.18336  -1.13764  -1.04725  -0.89667
 Alpha  occ. eigenvalues --   -0.80206  -0.78564  -0.69922  -0.67778  -0.60989
 Alpha  occ. eigenvalues --   -0.59158  -0.54555  -0.52810  -0.52707  -0.51382
 Alpha  occ. eigenvalues --   -0.50031  -0.47880  -0.47783  -0.45626  -0.43166
 Alpha  occ. eigenvalues --   -0.40553  -0.39329  -0.37863  -0.35270  -0.31274
 Alpha  occ. eigenvalues --   -0.28877  -0.27232  -0.21639
 Alpha virt. eigenvalues --   -0.10604  -0.09871  -0.06692  -0.02155  -0.00825
 Alpha virt. eigenvalues --   -0.00353   0.01477   0.02015   0.02750   0.02811
 Alpha virt. eigenvalues --    0.03508   0.03594   0.05463   0.06493   0.06739
 Alpha virt. eigenvalues --    0.06786   0.07251   0.07613   0.08656   0.09101
 Alpha virt. eigenvalues --    0.09246   0.10376   0.10857   0.11326   0.11813
 Alpha virt. eigenvalues --    0.11917   0.12212   0.12925   0.13548   0.13749
 Alpha virt. eigenvalues --    0.14823   0.16601   0.17061   0.17516   0.18056
 Alpha virt. eigenvalues --    0.18587   0.18908   0.19263   0.19834   0.19885
 Alpha virt. eigenvalues --    0.20252   0.20920   0.21587   0.22119   0.22966
 Alpha virt. eigenvalues --    0.23395   0.23553   0.24327   0.24961   0.26059
 Alpha virt. eigenvalues --    0.26258   0.27277   0.27527   0.27907   0.28513
 Alpha virt. eigenvalues --    0.28651   0.29451   0.29780   0.30777   0.31839
 Alpha virt. eigenvalues --    0.32119   0.32264   0.34104   0.35294   0.35638
 Alpha virt. eigenvalues --    0.36819   0.38209   0.38439   0.39003   0.39904
 Alpha virt. eigenvalues --    0.40427   0.42782   0.42997   0.45228   0.46817
 Alpha virt. eigenvalues --    0.47024   0.48529   0.48586   0.49327   0.49584
 Alpha virt. eigenvalues --    0.51165   0.51914   0.52902   0.53353   0.54194
 Alpha virt. eigenvalues --    0.54982   0.55268   0.56199   0.56470   0.57216
 Alpha virt. eigenvalues --    0.58180   0.58658   0.59431   0.60623   0.61026
 Alpha virt. eigenvalues --    0.61834   0.62825   0.62967   0.63674   0.65053
 Alpha virt. eigenvalues --    0.65459   0.68103   0.68778   0.69190   0.70199
 Alpha virt. eigenvalues --    0.71060   0.71175   0.72282   0.72800   0.73061
 Alpha virt. eigenvalues --    0.73985   0.74538   0.75625   0.76305   0.77205
 Alpha virt. eigenvalues --    0.78009   0.78654   0.79573   0.80273   0.80598
 Alpha virt. eigenvalues --    0.82319   0.84259   0.85264   0.86358   0.87058
 Alpha virt. eigenvalues --    0.88838   0.89420   0.89470   0.89725   0.93509
 Alpha virt. eigenvalues --    0.95872   0.96502   0.97640   0.99225   1.00788
 Alpha virt. eigenvalues --    1.01303   1.04178   1.05437   1.07426   1.08987
 Alpha virt. eigenvalues --    1.11680   1.14362   1.16183   1.17010   1.18321
 Alpha virt. eigenvalues --    1.19938   1.21211   1.22295   1.22750   1.24540
 Alpha virt. eigenvalues --    1.26555   1.27548   1.27754   1.30222   1.32811
 Alpha virt. eigenvalues --    1.33838   1.34487   1.36753   1.37218   1.39615
 Alpha virt. eigenvalues --    1.40043   1.41802   1.42890   1.43227   1.47278
 Alpha virt. eigenvalues --    1.48822   1.49503   1.51246   1.52124   1.52281
 Alpha virt. eigenvalues --    1.52993   1.55661   1.56476   1.58240   1.60930
 Alpha virt. eigenvalues --    1.63367   1.64384   1.65050   1.66092   1.67074
 Alpha virt. eigenvalues --    1.68082   1.71198   1.71441   1.71760   1.73619
 Alpha virt. eigenvalues --    1.79001   1.80532   1.81648   1.86063   1.87154
 Alpha virt. eigenvalues --    1.88755   1.90387   1.92632   1.93038   1.95439
 Alpha virt. eigenvalues --    1.95579   1.97659   1.97904   1.99740   2.01548
 Alpha virt. eigenvalues --    2.04564   2.04867   2.06125   2.07712   2.09618
 Alpha virt. eigenvalues --    2.10533   2.11852   2.14255   2.16587   2.20805
 Alpha virt. eigenvalues --    2.21345   2.24912   2.24953   2.29626   2.30988
 Alpha virt. eigenvalues --    2.35927   2.37960   2.38431   2.47089   2.49498
 Alpha virt. eigenvalues --    2.51144   2.56398   2.59605   2.64647   2.69227
 Alpha virt. eigenvalues --    2.72626   2.76502   2.79791   2.83776   2.86734
 Alpha virt. eigenvalues --    2.87652   2.90672   2.91088   3.01352   3.09076
 Alpha virt. eigenvalues --    3.12702   3.14682   3.21617   3.29628   3.31562
 Alpha virt. eigenvalues --    3.32000   3.36226   3.38933   3.41900   3.48225
 Alpha virt. eigenvalues --    3.55122   3.59542   3.69185   3.74077   3.89456
 Alpha virt. eigenvalues --    3.98973
          Condensed to atoms (all electrons):
              1          2          3          4          5          6
     1  C    8.373233   0.414313  -0.663479  -1.094824   0.520365  -1.897390
     2  C    0.414313  10.704604   0.427145  -2.126583  -1.817429   0.482751
     3  C   -0.663479   0.427145  18.046908  -4.732893  -5.000558  -0.939820
     4  C   -1.094824  -2.126583  -4.732893  18.449760  -2.532952  -1.084357
     5  C    0.520365  -1.817429  -5.000558  -2.532952  19.094978  -2.013546
     6  C   -1.897390   0.482751  -0.939820  -1.084357  -2.013546  12.054365
     7  H   -0.861692  -0.254783   0.211069  -0.124395  -0.113540   0.518542
     8  H   -0.176039   0.123871  -0.214019   0.600680  -2.022831   0.740354
     9  N    0.096665  -0.313069   0.296179   0.015197  -0.028937  -0.085159
    10  N    0.070602   0.334410  -0.368006  -0.413130  -0.076200  -0.013005
    11  H    0.539079  -0.163599  -0.057389  -0.130540   0.882265  -1.693946
    12  C    0.200167  -0.356444  -2.195351  -3.206407  -1.473570  -0.432664
    13  O    0.014094  -0.014734   0.071623   0.123686   0.091116  -0.126304
    14  O    0.019651  -0.036737   0.144867   0.186477   0.008195  -0.060974
    15  H   -0.003800   0.002006  -0.005135   0.126850  -0.033443   0.006785
              7          8          9         10         11         12
     1  C   -0.861692  -0.176039   0.096665   0.070602   0.539079   0.200167
     2  C   -0.254783   0.123871  -0.313069   0.334410  -0.163599  -0.356444
     3  C    0.211069  -0.214019   0.296179  -0.368006  -0.057389  -2.195351
     4  C   -0.124395   0.600680   0.015197  -0.413130  -0.130540  -3.206407
     5  C   -0.113540  -2.022831  -0.028937  -0.076200   0.882265  -1.473570
     6  C    0.518542   0.740354  -0.085159  -0.013005  -1.693946  -0.432664
     7  H    2.559306  -0.008603  -0.019675   0.005176  -0.210135  -0.021030
     8  H   -0.008603   3.094393  -0.005365  -0.000451  -0.213681   0.174763
     9  N   -0.019675  -0.005365   8.161922  -1.598541   0.007797  -0.001292
    10  N    0.005176  -0.000451  -1.598541   9.835072  -0.000306  -0.002008
    11  H   -0.210135  -0.213681   0.007797  -0.000306   2.755870   0.040487
    12  C   -0.021030   0.174763  -0.001292  -0.002008   0.040487  13.369527
    13  O    0.000171  -0.102199  -0.006222   0.000392   0.000419  -0.000586
    14  O   -0.000227  -0.006763  -0.069363   0.013806  -0.000246  -0.436121
    15  H    0.000083   0.002056   0.016544  -0.001789   0.000283  -0.161501
             13         14         15
     1  C    0.014094   0.019651  -0.003800
     2  C   -0.014734  -0.036737   0.002006
     3  C    0.071623   0.144867  -0.005135
     4  C    0.123686   0.186477   0.126850
     5  C    0.091116   0.008195  -0.033443
     6  C   -0.126304  -0.060974   0.006785
     7  H    0.000171  -0.000227   0.000083
     8  H   -0.102199  -0.006763   0.002056
     9  N   -0.006222  -0.069363   0.016544
    10  N    0.000392   0.013806  -0.001789
    11  H    0.000419  -0.000246   0.000283
    12  C   -0.000586  -0.436121  -0.161501
    13  O    8.496533   0.001553  -0.015848
    14  O    0.001553   8.562979   0.258130
    15  H   -0.015848   0.258130   0.542483
 Mulliken atomic charges:
              1
     1  C    0.449056
     2  C   -1.405721
     3  C    0.978858
     4  C    1.943433
     5  C    0.516088
     6  C    0.544367
     7  H   -0.680265
     8  H   -0.986166
     9  N    0.533320
    10  N   -0.786022
    11  H   -0.756357
    12  C    0.502032
    13  O   -0.533694
    14  O   -0.585225
    15  H    0.266296
 Sum of Mulliken atomic charges =   0.00000
 Mulliken charges with hydrogens summed into heavy atoms:
              1
     1  C   -0.231209
     2  C   -1.405721
     3  C    0.978858
     4  C    1.943433
     5  C   -0.470078
     6  C   -0.211990
     9  N    0.533320
    10  N   -0.786022
    12  C    0.502032
    13  O   -0.533694
    14  O   -0.318929
 Sum of Mulliken charges with hydrogens summed into heavy atoms =   0.00000
 APT atomic charges:
              1
     1  C    0.658100
     2  C    0.376177
     3  C   -0.397350
     4  C    0.873076
     5  C   -0.598122
     6  C    0.480923
     7  H   -0.113246
     8  H   -0.275264
     9  N   -1.240949
    10  N    0.784957
    11  H   -0.169484
    12  C   -0.386224
    13  O    0.256471
    14  O   -1.103099
    15  H    0.854033
 Sum of APT charges=   0.00000
 APT Atomic charges with hydrogens summed into heavy atoms:
              1
     1  C    0.544854
     2  C    0.376177
     3  C   -0.397350
     4  C    0.873076
     5  C   -0.873386
     6  C    0.311440
     7  H    0.000000
     8  H    0.000000
     9  N   -1.240949
    10  N    0.784957
    11  H    0.000000
    12  C   -0.386224
    13  O    0.256471
    14  O   -0.249065
    15  H    0.000000
 Sum of APT charges=   0.00000
 Electronic spatial extent (au):  <R**2>=           1595.0656
 Charge=              0.0000 electrons
 Dipole moment (field-independent basis, Debye):
    X=              1.6693    Y=              0.0232    Z=              0.0000  Tot=              1.6695
 Quadrupole moment (field-independent basis, Debye-Ang):
   XX=            -55.5914   YY=            -68.8585   ZZ=            -63.2488
   XY=             10.1896   XZ=              0.0000   YZ=             -0.0001
 Traceless Quadrupole moment (field-independent basis, Debye-Ang):
   XX=              6.9748   YY=             -6.2923   ZZ=             -0.6826
   XY=             10.1896   XZ=              0.0000   YZ=             -0.0001
 Octapole moment (field-independent basis, Debye-Ang**2):
  XXX=             43.3042  YYY=             -0.2225  ZZZ=              0.0000  XYY=              0.8656
  XXY=            -11.3671  XXZ=              0.0001  XZZ=             13.9931  YZZ=              0.3665
  YYZ=              0.0001  XYZ=             -0.0001
 Hexadecapole moment (field-independent basis, Debye-Ang**3):
 XXXX=           -953.3064 YYYY=           -960.5868 ZZZZ=            -68.0085 XXXY=             24.8472
 XXXZ=              0.0004 YYYX=             74.3169 YYYZ=             -0.0006 ZZZX=             -0.0002
 ZZZY=             -0.0004 XXYY=           -383.1741 XXZZ=           -213.2052 YYZZ=           -162.8470
 XXYZ=             -0.0004 YYXZ=              0.0002 ZZXY=              0.3460
 N-N= 5.373784243355D+02 E-N=-2.308631357584D+03  KE= 5.258390604410D+02
  Exact polarizability:   0.000   0.000   0.000   0.000   0.000   0.000
 Approx polarizability: 267.881  21.531 229.221   0.000   0.000  93.249
 Calling FoFJK, ICntrl=    100147 FMM=F ISym2X=0 I1Cent= 0 IOpClX= 0 NMat=1 NMatS=1 NMatT=0.
 -------------------------------------------------------------------
 Center     Atomic                   Forces (Hartrees/Bohr)
 Number     Number              X              Y              Z
 -------------------------------------------------------------------
      1        6          -0.000002544   -0.000002666    0.000000000
      2        6          -0.000008451   -0.000003504   -0.000000036
      3        6           0.000003710   -0.000002379    0.000000086
      4        6           0.000004730    0.000004056    0.000000092
      5        6          -0.000006695   -0.000006984   -0.000000046
      6        6           0.000006557    0.000005779   -0.000000006
      7        1           0.000000216   -0.000001973    0.000000012
      8        1           0.000001307    0.000002323   -0.000000008
      9        7           0.000003375    0.000005140   -0.000000028
     10        7          -0.000002656   -0.000000871    0.000000006
     11        1          -0.000001317   -0.000004733    0.000000002
     12        6           0.000003968    0.000002414   -0.000000327
     13        8          -0.000000620    0.000001174    0.000000178
     14        8           0.000003724   -0.000000687    0.000000129
     15        1          -0.000005304    0.000002913   -0.000000055
 -------------------------------------------------------------------
 Cartesian Forces:  Max     0.000008451 RMS     0.000003269
 IRC-IRC-IRC-IRC-IRC-IRC-IRC-IRC-IRC-IRC-IRC-IRC-IRC-IRC-IRC-IRC-IRC-IRC
          ******** Start new reaction path calculation ********
 Supplied step size of   0.0100 bohr.
    Integration on MW PES will use step size of   0.0358 sqrt(amu)*bohr.
 Point Number:   0          Path Number:   1
 Calculating another point on the path.
 IRC-IRC-IRC-IRC-IRC-IRC-IRC-IRC-IRC-IRC-IRC-IRC-IRC-IRC-IRC-IRC-IRC-IRC
                          Input orientation:                          
 ---------------------------------------------------------------------
 Center     Atomic      Atomic             Coordinates (Angstroms)
 Number     Number       Type             X           Y           Z
 ---------------------------------------------------------------------
      1          6           0       -2.722010    0.214848    0.000000
      2          6           0       -1.730475    1.235766    0.000000
      3          6           0       -0.496138    0.720822    0.000000
      4          6           0       -0.001613   -0.598512    0.000000
      5          6           0       -1.029809   -1.548123    0.000000
      6          6           0       -2.376171   -1.140320    0.000000
      7          1           0       -3.782559    0.482918    0.000000
      8          1           0       -0.757743   -2.602192    0.000000
      9          7           0        0.601154    1.894481    0.000000
     10          7           0        1.040555    2.914669    0.000000
     11          1           0       -3.156389   -1.904509    0.000000
     12          6           0        1.405757   -1.070342    0.000000
     13          8           0        1.747043   -2.233172   -0.000010
     14          8           0        2.313998   -0.054154    0.000010
     15          1           0        3.192492   -0.468033    0.000010
 ---------------------------------------------------------------------
                    Distance matrix (angstroms):
                    1          2          3          4          5
     1  C    0.000000
     2  C    1.423170   0.000000
     3  C    2.282655   1.337443   0.000000
     4  C    2.839386   2.520622   1.408970   0.000000
     5  C    2.443689   2.870709   2.330862   1.399624   0.000000
     6  C    1.398602   2.462257   2.645444   2.435587   1.406768
     7  H    1.093904   2.185825   3.295020   3.932562   3.420930
     8  H    3.434248   3.959309   3.333296   2.141604   1.088614
     9  N    3.723517   2.422890   1.606712   2.564827   3.809404
    10  N    4.630974   3.239957   2.678505   3.664499   4.919646
    11  H    2.163414   3.448848   3.737552   3.414417   2.156237
    12  C    4.323214   3.892825   2.612561   1.484357   2.481986
    13  O    5.095610   4.911889   3.709170   2.393723   2.860104
    14  O    5.043187   4.245191   2.915039   2.378735   3.662374
    15  H    5.953794   5.209466   3.875484   3.196770   4.358259
                    6          7          8          9         10
     6  C    0.000000
     7  H    2.147750   0.000000
     8  H    2.180913   4.320581   0.000000
     9  N    4.251409   4.605371   4.697517   0.000000
    10  N    5.302542   5.401466   5.802553   1.110791   0.000000
    11  H    1.092119   2.468177   2.498053   5.343356   6.390525
    12  C    3.782576   5.415833   2.650905   3.072061   4.001710
    13  O    4.265586   6.160653   2.531823   4.283757   5.196094
    14  O    4.814296   6.120168   3.991001   2.594419   3.230412
    15  H    5.609098   7.039578   4.489877   3.506638   4.009178
                   11         12         13         14         15
    11  H    0.000000
    12  C    4.637781   0.000000
    13  O    4.914435   1.211878   0.000000
    14  O    5.774855   1.362916   2.251568   0.000000
    15  H    6.509360   1.885523   2.281456   0.971107   0.000000
 Symmetry turned off by external request.
 Stoichiometry    C7H4N2O2
 Framework group  C1[X(C7H4N2O2)]
 Deg. of freedom    39
 Full point group                 C1      NOp   1
 Rotational constants (GHZ):      1.4555740      1.1967767      0.6567748
 Standard basis: Aug-CC-pVDZ (5D, 7F)
 Integral buffers will be    131072 words long.
 Raffenetti 2 integral format.
 Two-electron integral symmetry is turned off.
   289 basis functions,   517 primitive gaussians,   311 cartesian basis functions
    38 alpha electrons       38 beta electrons
       nuclear repulsion energy       537.4655767882 Hartrees.
 NAtoms=   15 NActive=   15 NUniq=   15 SFac= 1.00D+00 NAtFMM=   50 NAOKFM=F Big=F
 One-electron integrals computed using PRISM.
 NBasis=   289 RedAO= T  NBF=   289
 NBsUse=   289 1.00D-06 NBFU=   289
 Initial guess read from the read-write file.
 B after Tr=     0.000000    0.000000    0.000000
         Rot=    1.000000    0.000000    0.000000    0.000000 Ang=   0.00 deg.
 Harris functional with IExCor=  402 diagonalized for initial guess.
 ExpMin= 2.97D-02 ExpMax= 1.17D+04 ExpMxC= 4.01D+02 IAcc=3 IRadAn=         0 AccDes= 0.00D+00
 HarFok:  IExCor=  402 AccDes= 0.00D+00 IRadAn=         0 IDoV= 1
 ScaDFX=  1.000000  1.000000  1.000000  1.000000
 FoFCou: FMM=F IPFlag=           0 FMFlag=      100000 FMFlg1=           0
         NFxFlg=           0 DoJE=T BraDBF=F KetDBF=T FulRan=T
         Omega=  0.000000  0.000000  1.000000  0.000000  0.000000 ICntrl=     500 IOpCl=  0
         NMat0=    1 NMatS0=    1 NMatT0=    0 NMatD0=    1 NMtDS0=    0 NMtDT0=    0
         I1Cent=           4 NGrid=           0.
 Symmetry not used in FoFCou.
 Requested convergence on RMS density matrix=1.00D-08 within 128 cycles.
 Requested convergence on MAX density matrix=1.00D-06.
 Requested convergence on             energy=1.00D-06.
 No special actions if energy rises.
 SCF Done:  E(RB3LYP) =  -529.043576133     A.U. after   12 cycles
             Convg  =    0.8312D-08             -V/T =  2.0061
 QCSCF skips out because SCF is already converged.
 Range of M.O.s used for correlation:     1   289
 NBasis=   289 NAE=    38 NBE=    38 NFC=     0 NFV=     0
 NROrb=    289 NOA=    38 NOB=    38 NVA=   251 NVB=   251

 **** Warning!!: The largest alpha MO coefficient is  0.79871819D+02

 Symmetrizing basis deriv contribution to polar:
 IMax=3 JMax=2 DiffMx= 0.00D+00
 Calling FoFJK, ICntrl=      2147 FMM=F ISym2X=0 I1Cent= 0 IOpClX= 0 NMat=1 NMatS=1 NMatT=0.
 -------------------------------------------------------------------
 Center     Atomic                   Forces (Hartrees/Bohr)
 Number     Number              X              Y              Z
 -------------------------------------------------------------------
      1        6           0.000089780    0.000041062    0.000000000
      2        6          -0.000024319    0.000159875   -0.000000036
      3        6           0.000347699    0.000265503    0.000000086
      4        6           0.000050869    0.000030326    0.000000092
      5        6           0.000067717    0.000095903   -0.000000046
      6        6           0.000004198    0.000063985   -0.000000006
      7        1           0.000042170   -0.000009138    0.000000012
      8        1           0.000001123   -0.000017351   -0.000000008
      9        7          -0.000548467   -0.000172482   -0.000000028
     10        7          -0.000034361   -0.000517621    0.000000006
     11        1          -0.000049246   -0.000034468    0.000000002
     12        6           0.000039783    0.000061991   -0.000000327
     13        8           0.000020267    0.000036248    0.000000178
     14        8          -0.000017965    0.000007511    0.000000129
     15        1           0.000010754   -0.000011344   -0.000000055
 -------------------------------------------------------------------
 Cartesian Forces:  Max     0.000548467 RMS     0.000138397
 IRC-IRC-IRC-IRC-IRC-IRC-IRC-IRC-IRC-IRC-IRC-IRC-IRC-IRC-IRC-IRC-IRC-IRC
 Pt  1 Step number   1 out of a maximum of1000
 CORRECTOR INTEGRATION CONVERGENCE:
   Recorrection delta-x convergence threshold:    0.010000
   Delta-x Convergence Met
 Point Number:   1          Path Number:   1
   CHANGE IN THE REACTION COORDINATE =    0.03576
   NET REACTION COORDINATE UP TO THIS POINT =    0.03576
  # OF POINTS ALONG THE PATH =   1
  # OF STEPS =   1

 Calculating another point on the path.
 IRC-IRC-IRC-IRC-IRC-IRC-IRC-IRC-IRC-IRC-IRC-IRC-IRC-IRC-IRC-IRC-IRC-IRC
                          Input orientation:                          
 ---------------------------------------------------------------------
 Center     Atomic      Atomic             Coordinates (Angstroms)
 Number     Number       Type             X           Y           Z
 ---------------------------------------------------------------------
      1          6           0       -2.721387    0.215027    0.000000
      2          6           0       -1.730441    1.236810    0.000000
      3          6           0       -0.494144    0.722513    0.000000
      4          6           0       -0.001427   -0.598246    0.000000
      5          6           0       -1.029471   -1.547716    0.000000
      6          6           0       -2.376124   -1.140081    0.000000
      7          1           0       -3.781842    0.483128    0.000000
      8          1           0       -0.757504   -2.601875   -0.000001
      9          7           0        0.597997    1.893147    0.000000
     10          7           0        1.040604    2.912161    0.000000
     11          1           0       -3.156529   -1.904342    0.000000
     12          6           0        1.405844   -1.070168   -0.000001
     13          8           0        1.747172   -2.232980   -0.000010
     14          8           0        2.314064   -0.054020    0.000010
     15          1           0        3.192557   -0.467979    0.000008
 ---------------------------------------------------------------------
                    Distance matrix (angstroms):
                    1          2          3          4          5
     1  C    0.000000
     2  C    1.423382   0.000000
     3  C    2.284328   1.339004   0.000000
     4  C    2.838943   2.521293   1.409672   0.000000
     5  C    2.443326   2.871401   2.332492   1.399418   0.000000
     6  C    1.398400   2.463030   2.647849   2.435728   1.406997
     7  H    1.093820   2.185470   3.296401   3.932036   3.420508
     8  H    3.433915   3.960065   3.334804   2.141538   1.088677
     9  N    3.719462   2.419174   1.600986   2.562488   3.806336
    10  N    4.628943   3.238131   2.673950   3.661801   4.916881
    11  H    2.163579   3.449720   3.740142   3.414756   2.156746
    12  C    4.322704   3.893384   2.612214   1.484292   2.481696
    13  O    5.095170   4.912559   3.709237   2.393732   2.859953
    14  O    5.042634   4.245499   2.913595   2.378588   3.662016
    15  H    5.953253   5.209819   3.874149   3.196639   4.357907
                    6          7          8          9         10
     6  C    0.000000
     7  H    2.147289   0.000000
     8  H    2.181003   4.320170   0.000000
     9  N    4.248042   4.601211   4.694955   0.000000
    10  N    5.300443   5.399647   5.799810   1.110987   0.000000
    11  H    1.092304   2.468002   2.498373   5.340167   6.388633
    12  C    3.782614   5.415239   2.650699   3.071458   3.999044
    13  O    4.265677   6.160133   2.531696   4.283167   5.193430
    14  O    4.814290   6.119526   3.990752   2.595446   3.227992
    15  H    5.609093   7.038951   4.489599   3.508083   4.007024
                   11         12         13         14         15
    11  H    0.000000
    12  C    4.638005   0.000000
    13  O    4.914701   1.211872   0.000000
    14  O    5.775039   1.362872   2.251496   0.000000
    15  H    6.509533   1.885464   2.281308   0.971139   0.000000
 Symmetry turned off by external request.
 Stoichiometry    C7H4N2O2
 Framework group  C1[X(C7H4N2O2)]
 Deg. of freedom    39
 Full point group                 C1      NOp   1
 Rotational constants (GHZ):      1.4567490      1.1970546      0.6570976
 Standard basis: Aug-CC-pVDZ (5D, 7F)
 Integral buffers will be    131072 words long.
 Raffenetti 2 integral format.
 Two-electron integral symmetry is turned off.
   289 basis functions,   517 primitive gaussians,   311 cartesian basis functions
    38 alpha electrons       38 beta electrons
       nuclear repulsion energy       537.5524438446 Hartrees.
 NAtoms=   15 NActive=   15 NUniq=   15 SFac= 1.00D+00 NAtFMM=   50 NAOKFM=F Big=F
 One-electron integrals computed using PRISM.
 NBasis=   289 RedAO= T  NBF=   289
 NBsUse=   289 1.00D-06 NBFU=   289
 Initial guess read from the read-write file.
 B after Tr=     0.000000    0.000000    0.000000
         Rot=    1.000000    0.000000    0.000000    0.000000 Ang=   0.00 deg.
 Harris functional with IExCor=  402 diagonalized for initial guess.
 ExpMin= 2.97D-02 ExpMax= 1.17D+04 ExpMxC= 4.01D+02 IAcc=3 IRadAn=         0 AccDes= 0.00D+00
 HarFok:  IExCor=  402 AccDes= 0.00D+00 IRadAn=         0 IDoV= 1
 ScaDFX=  1.000000  1.000000  1.000000  1.000000
 FoFCou: FMM=F IPFlag=           0 FMFlag=      100000 FMFlg1=           0
         NFxFlg=           0 DoJE=T BraDBF=F KetDBF=T FulRan=T
         Omega=  0.000000  0.000000  1.000000  0.000000  0.000000 ICntrl=     500 IOpCl=  0
         NMat0=    1 NMatS0=    1 NMatT0=    0 NMatD0=    1 NMtDS0=    0 NMtDT0=    0
         I1Cent=           4 NGrid=           0.
 Symmetry not used in FoFCou.
 Requested convergence on RMS density matrix=1.00D-08 within 128 cycles.
 Requested convergence on MAX density matrix=1.00D-06.
 Requested convergence on             energy=1.00D-06.
 No special actions if energy rises.
 SCF Done:  E(RB3LYP) =  -529.043588785     A.U. after   12 cycles
             Convg  =    0.8362D-08             -V/T =  2.0061
 QCSCF skips out because SCF is already converged.
 Range of M.O.s used for correlation:     1   289
 NBasis=   289 NAE=    38 NBE=    38 NFC=     0 NFV=     0
 NROrb=    289 NOA=    38 NOB=    38 NVA=   251 NVB=   251

 **** Warning!!: The largest alpha MO coefficient is  0.79854949D+02

 Symmetrizing basis deriv contribution to polar:
 IMax=3 JMax=2 DiffMx= 0.00D+00
 Calling FoFJK, ICntrl=      2147 FMM=F ISym2X=0 I1Cent= 0 IOpClX= 0 NMat=1 NMatS=1 NMatT=0.
 -------------------------------------------------------------------
 Center     Atomic                   Forces (Hartrees/Bohr)
 Number     Number              X              Y              Z
 -------------------------------------------------------------------
      1        6           0.000216077    0.000056681    0.000000011
      2        6           0.000028108    0.000361592    0.000000006
      3        6           0.000599483    0.000506671    0.000000017
      4        6           0.000044102    0.000092078   -0.000000006
      5        6           0.000118111    0.000065156   -0.000000023
      6        6           0.000096952    0.000086451   -0.000000008
      7        1          -0.000012430    0.000016103    0.000000002
      8        1           0.000010903    0.000031487   -0.000000004
      9        7          -0.001176109   -0.000485832   -0.000000006
     10        7          -0.000043089   -0.000806074    0.000000001
     11        1           0.000051782    0.000040094   -0.000000002
     12        6          -0.000002475   -0.000046994   -0.000000002
     13        8           0.000050456    0.000004102    0.000000037
     14        8           0.000032943    0.000058206   -0.000000020
     15        1          -0.000014813    0.000020280   -0.000000003
 -------------------------------------------------------------------
 Cartesian Forces:  Max     0.001176109 RMS     0.000263717
 IRC-IRC-IRC-IRC-IRC-IRC-IRC-IRC-IRC-IRC-IRC-IRC-IRC-IRC-IRC-IRC-IRC-IRC
 Pt  2 Step number   1 out of a maximum of1000
 CORRECTOR INTEGRATION CONVERGENCE:
   Recorrection delta-x convergence threshold:    0.010000
   Delta-x Convergence Met
 Point Number:   2          Path Number:   1
   CHANGE IN THE REACTION COORDINATE =    0.03573
   NET REACTION COORDINATE UP TO THIS POINT =    0.07148
  # OF POINTS ALONG THE PATH =   2
  # OF STEPS =   1

 Calculating another point on the path.
 IRC-IRC-IRC-IRC-IRC-IRC-IRC-IRC-IRC-IRC-IRC-IRC-IRC-IRC-IRC-IRC-IRC-IRC
                          Input orientation:                          
 ---------------------------------------------------------------------
 Center     Atomic      Atomic             Coordinates (Angstroms)
 Number     Number       Type             X           Y           Z
 ---------------------------------------------------------------------
      1          6           0       -2.720698    0.215272    0.000000
      2          6           0       -1.730360    1.237991    0.000000
      3          6           0       -0.492174    0.724189    0.000000
      4          6           0       -0.001235   -0.597993    0.000000
      5          6           0       -1.029008   -1.547391    0.000000
      6          6           0       -2.375761   -1.139716    0.000000
      7          1           0       -3.781215    0.483363    0.000000
      8          1           0       -0.757045   -2.601513   -0.000001
      9          7           0        0.594735    1.891900    0.000000
     10          7           0        1.040388    2.909869    0.000000
     11          1           0       -3.156068   -1.904001    0.000000
     12          6           0        1.405882   -1.070264   -0.000001
     13          8           0        1.747282   -2.233029   -0.000010
     14          8           0        2.314047   -0.053918    0.000010
     15          1           0        3.192629   -0.467610    0.000008
 ---------------------------------------------------------------------
                    Distance matrix (angstroms):
                    1          2          3          4          5
     1  C    0.000000
     2  C    1.423631   0.000000
     3  C    2.285895   1.340558   0.000000
     4  C    2.838465   2.522045   1.410385   0.000000
     5  C    2.443112   2.872325   2.334152   1.399169   0.000000
     6  C    1.398204   2.463744   2.649913   2.435537   1.407104
     7  H    1.093877   2.185285   3.297845   3.931613   3.420322
     8  H    3.433688   3.960951   3.336233   2.141342   1.088640
     9  N    3.715263   2.415297   1.595280   2.560223   3.803322
    10  N    4.626729   3.236081   2.669446   3.659244   4.914220
    11  H    2.163530   3.450327   3.742153   3.414473   2.156746
    12  C    4.322183   3.894105   2.612026   1.484256   2.481197
    13  O    5.094804   4.913448   3.709489   2.393879   2.859700
    14  O    5.041936   4.245733   2.912100   2.378349   3.661485
    15  H    5.952627   5.210076   3.872746   3.196524   4.357539
                    6          7          8          9         10
     6  C    0.000000
     7  H    2.147018   0.000000
     8  H    2.181075   4.319961   0.000000
     9  N    4.244354   4.597054   4.692341   0.000000
    10  N    5.298039   5.397757   5.797077   1.111246   0.000000
    11  H    1.092250   2.467857   2.498366   5.336420   6.386202
    12  C    3.782280   5.414769   2.650090   3.071216   3.996879
    13  O    4.265538   6.159794   2.531292   4.282920   5.191252
    14  O    4.813860   6.118895   3.990219   2.596582   3.225870
    15  H    5.608805   7.038383   4.489262   3.509464   4.004934
                   11         12         13         14         15
    11  H    0.000000
    12  C    4.637510   0.000000
    13  O    4.914377   1.211849   0.000000
    14  O    5.774509   1.362983   2.251610   0.000000
    15  H    6.509160   1.885645   2.281607   0.971106   0.000000
 Symmetry turned off by external request.
 Stoichiometry    C7H4N2O2
 Framework group  C1[X(C7H4N2O2)]
 Deg. of freedom    39
 Full point group                 C1      NOp   1
 Rotational constants (GHZ):      1.4577421      1.1974541      0.6574201
 Standard basis: Aug-CC-pVDZ (5D, 7F)
 Integral buffers will be    131072 words long.
 Raffenetti 2 integral format.
 Two-electron integral symmetry is turned off.
   289 basis functions,   517 primitive gaussians,   311 cartesian basis functions
    38 alpha electrons       38 beta electrons
       nuclear repulsion energy       537.6381350419 Hartrees.
 NAtoms=   15 NActive=   15 NUniq=   15 SFac= 1.00D+00 NAtFMM=   50 NAOKFM=F Big=F
 One-electron integrals computed using PRISM.
 NBasis=   289 RedAO= T  NBF=   289
 NBsUse=   289 1.00D-06 NBFU=   289
 Initial guess read from the read-write file.
 B after Tr=     0.000000    0.000000    0.000000
         Rot=    1.000000    0.000000    0.000000    0.000000 Ang=   0.00 deg.
 Harris functional with IExCor=  402 diagonalized for initial guess.
 ExpMin= 2.97D-02 ExpMax= 1.17D+04 ExpMxC= 4.01D+02 IAcc=3 IRadAn=         0 AccDes= 0.00D+00
 HarFok:  IExCor=  402 AccDes= 0.00D+00 IRadAn=         0 IDoV= 1
 ScaDFX=  1.000000  1.000000  1.000000  1.000000
 FoFCou: FMM=F IPFlag=           0 FMFlag=      100000 FMFlg1=           0
         NFxFlg=           0 DoJE=T BraDBF=F KetDBF=T FulRan=T
         Omega=  0.000000  0.000000  1.000000  0.000000  0.000000 ICntrl=     500 IOpCl=  0
         NMat0=    1 NMatS0=    1 NMatT0=    0 NMatD0=    1 NMtDS0=    0 NMtDT0=    0
         I1Cent=           4 NGrid=           0.
 Symmetry not used in FoFCou.
 Requested convergence on RMS density matrix=1.00D-08 within 128 cycles.
 Requested convergence on MAX density matrix=1.00D-06.
 Requested convergence on             energy=1.00D-06.
 No special actions if energy rises.
 SCF Done:  E(RB3LYP) =  -529.043610104     A.U. after   12 cycles
             Convg  =    0.8672D-08             -V/T =  2.0061
 QCSCF skips out because SCF is already converged.
 Range of M.O.s used for correlation:     1   289
 NBasis=   289 NAE=    38 NBE=    38 NFC=     0 NFV=     0
 NROrb=    289 NOA=    38 NOB=    38 NVA=   251 NVB=   251

 **** Warning!!: The largest alpha MO coefficient is  0.79825498D+02

 Symmetrizing basis deriv contribution to polar:
 IMax=3 JMax=2 DiffMx= 0.00D+00
 Calling FoFJK, ICntrl=      2147 FMM=F ISym2X=0 I1Cent= 0 IOpClX= 0 NMat=1 NMatS=1 NMatT=0.
 -------------------------------------------------------------------
 Center     Atomic                   Forces (Hartrees/Bohr)
 Number     Number              X              Y              Z
 -------------------------------------------------------------------
      1        6           0.000312704    0.000105355    0.000000011
      2        6           0.000024443    0.000518824    0.000000009
      3        6           0.000910266    0.000760221    0.000000011
      4        6           0.000092366    0.000107896   -0.000000006
      5        6           0.000215774    0.000170719   -0.000000021
      6        6           0.000136334    0.000150345   -0.000000010
      7        1           0.000021734    0.000010428    0.000000002
      8        1           0.000017572    0.000012797   -0.000000003
      9        7          -0.001713334   -0.000638962   -0.000000004
     10        7          -0.000121005   -0.001269061    0.000000001
     11        1           0.000013761    0.000013012   -0.000000002
     12        6           0.000023609   -0.000011880    0.000000003
     13        8           0.000067976   -0.000003860    0.000000034
     14        8          -0.000002437    0.000061898   -0.000000023
     15        1           0.000000238    0.000012268   -0.000000001
 -------------------------------------------------------------------
 Cartesian Forces:  Max     0.001713334 RMS     0.000391632
 IRC-IRC-IRC-IRC-IRC-IRC-IRC-IRC-IRC-IRC-IRC-IRC-IRC-IRC-IRC-IRC-IRC-IRC
 Pt  3 Step number   1 out of a maximum of1000
 CORRECTOR INTEGRATION CONVERGENCE:
   Recorrection delta-x convergence threshold:    0.010000
   Delta-x Convergence Met
 Point Number:   3          Path Number:   1
   CHANGE IN THE REACTION COORDINATE =    0.03577
   NET REACTION COORDINATE UP TO THIS POINT =    0.10726
  # OF POINTS ALONG THE PATH =   3
  # OF STEPS =   1

 Calculating another point on the path.
 IRC-IRC-IRC-IRC-IRC-IRC-IRC-IRC-IRC-IRC-IRC-IRC-IRC-IRC-IRC-IRC-IRC-IRC
                          Input orientation:                          
 ---------------------------------------------------------------------
 Center     Atomic      Atomic             Coordinates (Angstroms)
 Number     Number       Type             X           Y           Z
 ---------------------------------------------------------------------
      1          6           0       -2.720020    0.215501    0.000000
      2          6           0       -1.730289    1.239127    0.000000
      3          6           0       -0.490188    0.725861    0.000000
      4          6           0       -0.001022   -0.597742    0.000000
      5          6           0       -1.028539   -1.547023    0.000000
      6          6           0       -2.375455   -1.139381    0.000000
      7          1           0       -3.780561    0.483596    0.000000
      8          1           0       -0.756598   -2.601151   -0.000001
      9          7           0        0.591489    1.890647    0.000000
     10          7           0        1.040172    2.907537    0.000000
     11          1           0       -3.155739   -1.903710    0.000000
     12          6           0        1.405937   -1.070298   -0.000001
     13          8           0        1.747391   -2.233035   -0.000010
     14          8           0        2.314040   -0.053817    0.000010
     15          1           0        3.192696   -0.467316    0.000008
 ---------------------------------------------------------------------
                    Distance matrix (angstroms):
                    1          2          3          4          5
     1  C    0.000000
     2  C    1.423860   0.000000
     3  C    2.287492   1.342122   0.000000
     4  C    2.838013   2.522787   1.411103   0.000000
     5  C    2.442868   2.873167   2.335771   1.398902   0.000000
     6  C    1.398009   2.464455   2.652049   2.435427   1.407251
     7  H    1.093902   2.185049   3.299279   3.931184   3.420094
     8  H    3.433447   3.961794   3.337662   2.141155   1.088640
     9  N    3.711093   2.411459   1.589576   2.557958   3.800272
    10  N    4.624511   3.234045   2.664903   3.656647   4.911484
    11  H    2.163540   3.450990   3.744303   3.414351   2.156897
    12  C    4.321667   3.894786   2.611796   1.484198   2.480714
    13  O    5.094418   4.914282   3.709694   2.393978   2.859440
    14  O    5.041260   4.245975   2.910600   2.378101   3.660943
    15  H    5.952013   5.210349   3.871345   3.196380   4.357131
                    6          7          8          9         10
     6  C    0.000000
     7  H    2.146713   0.000000
     8  H    2.181162   4.319724   0.000000
     9  N    4.240735   4.592887   4.689733   0.000000
    10  N    5.295664   5.395827   5.794310   1.111477   0.000000
    11  H    1.092264   2.467718   2.498460   5.332810   6.383867
    12  C    3.782023   5.414273   2.649542   3.070915   3.994616
    13  O    4.265435   6.159410   2.530903   4.282623   5.188992
    14  O    4.813503   6.118249   3.989704   2.597714   3.223718
    15  H    5.608563   7.037794   4.488895   3.510879   4.002874
                   11         12         13         14         15
    11  H    0.000000
    12  C    4.637183   0.000000
    13  O    4.914177   1.211837   0.000000
    14  O    5.774131   1.363042   2.251685   0.000000
    15  H    6.508906   1.885761   2.281813   0.971091   0.000000
 Symmetry turned off by external request.
 Stoichiometry    C7H4N2O2
 Framework group  C1[X(C7H4N2O2)]
 Deg. of freedom    39
 Full point group                 C1      NOp   1
 Rotational constants (GHZ):      1.4587791      1.1978339      0.6577454
 Standard basis: Aug-CC-pVDZ (5D, 7F)
 Integral buffers will be    131072 words long.
 Raffenetti 2 integral format.
 Two-electron integral symmetry is turned off.
   289 basis functions,   517 primitive gaussians,   311 cartesian basis functions
    38 alpha electrons       38 beta electrons
       nuclear repulsion energy       537.7261038045 Hartrees.
 NAtoms=   15 NActive=   15 NUniq=   15 SFac= 1.00D+00 NAtFMM=   50 NAOKFM=F Big=F
 One-electron integrals computed using PRISM.
 NBasis=   289 RedAO= T  NBF=   289
 NBsUse=   289 1.00D-06 NBFU=   289
 Initial guess read from the read-write file.
 B after Tr=     0.000000    0.000000    0.000000
         Rot=    1.000000    0.000000    0.000000    0.000000 Ang=   0.00 deg.
 Harris functional with IExCor=  402 diagonalized for initial guess.
 ExpMin= 2.97D-02 ExpMax= 1.17D+04 ExpMxC= 4.01D+02 IAcc=3 IRadAn=         0 AccDes= 0.00D+00
 HarFok:  IExCor=  402 AccDes= 0.00D+00 IRadAn=         0 IDoV= 1
 ScaDFX=  1.000000  1.000000  1.000000  1.000000
 FoFCou: FMM=F IPFlag=           0 FMFlag=      100000 FMFlg1=           0
         NFxFlg=           0 DoJE=T BraDBF=F KetDBF=T FulRan=T
         Omega=  0.000000  0.000000  1.000000  0.000000  0.000000 ICntrl=     500 IOpCl=  0
         NMat0=    1 NMatS0=    1 NMatT0=    0 NMatD0=    1 NMtDS0=    0 NMtDT0=    0
         I1Cent=           4 NGrid=           0.
 Symmetry not used in FoFCou.
 Requested convergence on RMS density matrix=1.00D-08 within 128 cycles.
 Requested convergence on MAX density matrix=1.00D-06.
 Requested convergence on             energy=1.00D-06.
 No special actions if energy rises.
 SCF Done:  E(RB3LYP) =  -529.043639688     A.U. after   12 cycles
             Convg  =    0.8778D-08             -V/T =  2.0061
 QCSCF skips out because SCF is already converged.
 Range of M.O.s used for correlation:     1   289
 NBasis=   289 NAE=    38 NBE=    38 NFC=     0 NFV=     0
 NROrb=    289 NOA=    38 NOB=    38 NVA=   251 NVB=   251

 **** Warning!!: The largest alpha MO coefficient is  0.79787065D+02

 Symmetrizing basis deriv contribution to polar:
 IMax=3 JMax=2 DiffMx= 0.00D+00
 Calling FoFJK, ICntrl=      2147 FMM=F ISym2X=0 I1Cent= 0 IOpClX= 0 NMat=1 NMatS=1 NMatT=0.
 -------------------------------------------------------------------
 Center     Atomic                   Forces (Hartrees/Bohr)
 Number     Number              X              Y              Z
 -------------------------------------------------------------------
      1        6           0.000409389    0.000137108    0.000000010
      2        6           0.000035008    0.000687229    0.000000010
      3        6           0.001206050    0.001001204    0.000000008
      4        6           0.000126025    0.000156947   -0.000000005
      5        6           0.000288479    0.000226307   -0.000000020
      6        6           0.000185891    0.000205043   -0.000000010
      7        1           0.000034740    0.000010851    0.000000002
      8        1           0.000022756    0.000018636   -0.000000003
      9        7          -0.002271362   -0.000847291   -0.000000002
     10        7          -0.000173182   -0.001675867    0.000000000
     11        1           0.000017824    0.000017298   -0.000000002
     12        6           0.000033945   -0.000020803    0.000000003
     13        8           0.000088850   -0.000009492    0.000000033
     14        8          -0.000010108    0.000078136   -0.000000023
     15        1           0.000005695    0.000014694   -0.000000001
 -------------------------------------------------------------------
 Cartesian Forces:  Max     0.002271362 RMS     0.000518604
 IRC-IRC-IRC-IRC-IRC-IRC-IRC-IRC-IRC-IRC-IRC-IRC-IRC-IRC-IRC-IRC-IRC-IRC
 Pt  4 Step number   1 out of a maximum of1000
 CORRECTOR INTEGRATION CONVERGENCE:
   Recorrection delta-x convergence threshold:    0.010000
   Delta-x Convergence Met
 Point Number:   4          Path Number:   1
   CHANGE IN THE REACTION COORDINATE =    0.03577
   NET REACTION COORDINATE UP TO THIS POINT =    0.14303
  # OF POINTS ALONG THE PATH =   4
  # OF STEPS =   1

 Calculating another point on the path.
 IRC-IRC-IRC-IRC-IRC-IRC-IRC-IRC-IRC-IRC-IRC-IRC-IRC-IRC-IRC-IRC-IRC-IRC
                          Input orientation:                          
 ---------------------------------------------------------------------
 Center     Atomic      Atomic             Coordinates (Angstroms)
 Number     Number       Type             X           Y           Z
 ---------------------------------------------------------------------
      1          6           0       -2.719342    0.215728    0.000000
      2          6           0       -1.730223    1.240263    0.000000
      3          6           0       -0.488202    0.727526    0.000000
      4          6           0       -0.000805   -0.597481    0.000000
      5          6           0       -1.028062   -1.546647    0.000000
      6          6           0       -2.375141   -1.139039    0.000000
      7          1           0       -3.779899    0.483813    0.000000
      8          1           0       -0.756144   -2.600779   -0.000001
      9          7           0        0.588247    1.889401    0.000000
     10          7           0        1.039938    2.905201    0.000000
     11          1           0       -3.155405   -1.903404    0.000000
     12          6           0        1.405995   -1.070336   -0.000001
     13          8           0        1.747500   -2.233047   -0.000009
     14          8           0        2.314030   -0.053721    0.000010
     15          1           0        3.192773   -0.467015    0.000008
 ---------------------------------------------------------------------
                    Distance matrix (angstroms):
                    1          2          3          4          5
     1  C    0.000000
     2  C    1.424088   0.000000
     3  C    2.289087   1.343695   0.000000
     4  C    2.837561   2.523528   1.411808   0.000000
     5  C    2.442620   2.874004   2.337373   1.398632   0.000000
     6  C    1.397809   2.465157   2.654167   2.435314   1.407397
     7  H    1.093916   2.184809   3.300707   3.930745   3.419851
     8  H    3.433199   3.962630   3.339073   2.140967   1.088638
     9  N    3.706929   2.407630   1.583886   2.555692   3.797220
    10  N    4.622277   3.231998   2.660353   3.654029   4.908724
    11  H    2.163532   3.451635   3.746434   3.414226   2.157050
    12  C    4.321153   3.895476   2.611569   1.484142   2.480223
    13  O    5.094033   4.915123   3.709900   2.394085   2.859176
    14  O    5.040578   4.246219   2.909098   2.377842   3.660383
    15  H    5.951407   5.210633   3.869949   3.196242   4.356725
                    6          7          8          9         10
     6  C    0.000000
     7  H    2.146392   0.000000
     8  H    2.181246   4.319468   0.000000
     9  N    4.237111   4.588723   4.687121   0.000000
    10  N    5.293264   5.393881   5.791522   1.111699   0.000000
    11  H    1.092276   2.467549   2.498556   5.329193   6.381503
    12  C    3.781760   5.413768   2.648981   3.070628   3.992354
    13  O    4.265327   6.159015   2.530506   4.282340   5.186736
    14  O    4.813131   6.117591   3.989169   2.598855   3.221572
    15  H    5.608323   7.037204   4.488530   3.512300   4.000817
                   11         12         13         14         15
    11  H    0.000000
    12  C    4.636850   0.000000
    13  O    4.913974   1.211825   0.000000
    14  O    5.773737   1.363097   2.251759   0.000000
    15  H    6.508654   1.885888   2.282035   0.971083   0.000000
 Symmetry turned off by external request.
 Stoichiometry    C7H4N2O2
 Framework group  C1[X(C7H4N2O2)]
 Deg. of freedom    39
 Full point group                 C1      NOp   1
 Rotational constants (GHZ):      1.4598229      1.1982131      0.6580720
 Standard basis: Aug-CC-pVDZ (5D, 7F)
 Integral buffers will be    131072 words long.
 Raffenetti 2 integral format.
 Two-electron integral symmetry is turned off.
   289 basis functions,   517 primitive gaussians,   311 cartesian basis functions
    38 alpha electrons       38 beta electrons
       nuclear repulsion energy       537.8152499992 Hartrees.
 NAtoms=   15 NActive=   15 NUniq=   15 SFac= 1.00D+00 NAtFMM=   50 NAOKFM=F Big=F
 One-electron integrals computed using PRISM.
 NBasis=   289 RedAO= T  NBF=   289
 NBsUse=   289 1.00D-06 NBFU=   289
 Initial guess read from the read-write file.
 B after Tr=     0.000000    0.000000    0.000000
         Rot=    1.000000    0.000000    0.000000    0.000000 Ang=   0.00 deg.
 Harris functional with IExCor=  402 diagonalized for initial guess.
 ExpMin= 2.97D-02 ExpMax= 1.17D+04 ExpMxC= 4.01D+02 IAcc=3 IRadAn=         0 AccDes= 0.00D+00
 HarFok:  IExCor=  402 AccDes= 0.00D+00 IRadAn=         0 IDoV= 1
 ScaDFX=  1.000000  1.000000  1.000000  1.000000
 FoFCou: FMM=F IPFlag=           0 FMFlag=      100000 FMFlg1=           0
         NFxFlg=           0 DoJE=T BraDBF=F KetDBF=T FulRan=T
         Omega=  0.000000  0.000000  1.000000  0.000000  0.000000 ICntrl=     500 IOpCl=  0
         NMat0=    1 NMatS0=    1 NMatT0=    0 NMatD0=    1 NMtDS0=    0 NMtDT0=    0
         I1Cent=           4 NGrid=           0.
 Symmetry not used in FoFCou.
 Requested convergence on RMS density matrix=1.00D-08 within 128 cycles.
 Requested convergence on MAX density matrix=1.00D-06.
 Requested convergence on             energy=1.00D-06.
 No special actions if energy rises.
 SCF Done:  E(RB3LYP) =  -529.043677433     A.U. after   12 cycles
             Convg  =    0.8928D-08             -V/T =  2.0061
 QCSCF skips out because SCF is already converged.
 Range of M.O.s used for correlation:     1   289
 NBasis=   289 NAE=    38 NBE=    38 NFC=     0 NFV=     0
 NROrb=    289 NOA=    38 NOB=    38 NVA=   251 NVB=   251

 **** Warning!!: The largest alpha MO coefficient is  0.79735562D+02

 Symmetrizing basis deriv contribution to polar:
 IMax=3 JMax=2 DiffMx= 0.00D+00
 Calling FoFJK, ICntrl=      2147 FMM=F ISym2X=0 I1Cent= 0 IOpClX= 0 NMat=1 NMatS=1 NMatT=0.
 -------------------------------------------------------------------
 Center     Atomic                   Forces (Hartrees/Bohr)
 Number     Number              X              Y              Z
 -------------------------------------------------------------------
      1        6           0.000503757    0.000169491    0.000000010
      2        6           0.000034542    0.000855585    0.000000010
      3        6           0.001487909    0.001238617    0.000000006
      4        6           0.000164890    0.000187405   -0.000000005
      5        6           0.000356366    0.000276265   -0.000000019
      6        6           0.000231456    0.000255035   -0.000000011
      7        1           0.000040930    0.000013790    0.000000002
      8        1           0.000029059    0.000024423   -0.000000003
      9        7          -0.002825629   -0.001065110    0.000000000
     10        7          -0.000199950   -0.002036037    0.000000000
     11        1           0.000018442    0.000016305   -0.000000002
     12        6           0.000051226   -0.000031774    0.000000003
     13        8           0.000109979   -0.000014327    0.000000033
     14        8          -0.000007941    0.000092418   -0.000000024
     15        1           0.000004965    0.000017915   -0.000000001
 -------------------------------------------------------------------
 Cartesian Forces:  Max     0.002825629 RMS     0.000640848
 IRC-IRC-IRC-IRC-IRC-IRC-IRC-IRC-IRC-IRC-IRC-IRC-IRC-IRC-IRC-IRC-IRC-IRC
 Pt  5 Step number   1 out of a maximum of1000
 CORRECTOR INTEGRATION CONVERGENCE:
   Recorrection delta-x convergence threshold:    0.010000
   Delta-x Convergence Met
 Point Number:   5          Path Number:   1
   CHANGE IN THE REACTION COORDINATE =    0.03577
   NET REACTION COORDINATE UP TO THIS POINT =    0.17881
  # OF POINTS ALONG THE PATH =   5
  # OF STEPS =   1

 Calculating another point on the path.
 IRC-IRC-IRC-IRC-IRC-IRC-IRC-IRC-IRC-IRC-IRC-IRC-IRC-IRC-IRC-IRC-IRC-IRC
                          Input orientation:                          
 ---------------------------------------------------------------------
 Center     Atomic      Atomic             Coordinates (Angstroms)
 Number     Number       Type             X           Y           Z
 ---------------------------------------------------------------------
      1          6           0       -2.718670    0.215954    0.000000
      2          6           0       -1.730174    1.241411    0.000000
      3          6           0       -0.486216    0.729190    0.000000
      4          6           0       -0.000581   -0.597230    0.000000
      5          6           0       -1.027585   -1.546276    0.000000
      6          6           0       -2.374832   -1.138701    0.000000
      7          1           0       -3.779248    0.484028    0.000000
      8          1           0       -0.755680   -2.600406   -0.000001
      9          7           0        0.584989    1.888172    0.000000
     10          7           0        1.039717    2.902875    0.000000
     11          1           0       -3.155080   -1.903117    0.000000
     12          6           0        1.406065   -1.070381   -0.000001
     13          8           0        1.747613   -2.233065   -0.000009
     14          8           0        2.314025   -0.053630    0.000010
     15          1           0        3.192853   -0.466724    0.000008
 ---------------------------------------------------------------------
                    Distance matrix (angstroms):
                    1          2          3          4          5
     1  C    0.000000
     2  C    1.424320   0.000000
     3  C    2.290690   1.345288   0.000000
     4  C    2.837125   2.524300   1.412527   0.000000
     5  C    2.442381   2.874861   2.338980   1.398366   0.000000
     6  C    1.397610   2.465870   2.656292   2.435212   1.407548
     7  H    1.093933   2.184567   3.302145   3.930324   3.419618
     8  H    3.432960   3.963483   3.340483   2.140769   1.088633
     9  N    3.702766   2.403805   1.578201   2.553451   3.794183
    10  N    4.620067   3.229978   2.655820   3.651431   4.905984
    11  H    2.163542   3.452305   3.748583   3.414119   2.157213
    12  C    4.320660   3.896200   2.611358   1.484091   2.479744
    13  O    5.093660   4.915992   3.710114   2.394188   2.858916
    14  O    5.039910   4.246489   2.907604   2.377583   3.659829
    15  H    5.950811   5.210942   3.868561   3.196099   4.356320
                    6          7          8          9         10
     6  C    0.000000
     7  H    2.146074   0.000000
     8  H    2.181338   4.319225   0.000000
     9  N    4.233497   4.584560   4.684520   0.000000
    10  N    5.290887   5.391961   5.788744   1.111935   0.000000
    11  H    1.092299   2.467397   2.498666   5.325597   6.379175
    12  C    3.781514   5.413286   2.648418   3.070375   3.990109
    13  O    4.265230   6.158635   2.530102   4.282088   5.184495
    14  O    4.812770   6.116948   3.988628   2.600031   3.219438
    15  H    5.608089   7.036627   4.488152   3.513757   3.998773
                   11         12         13         14         15
    11  H    0.000000
    12  C    4.636539   0.000000
    13  O    4.913783   1.211812   0.000000
    14  O    5.773362   1.363148   2.251834   0.000000
    15  H    6.508416   1.886004   2.282253   0.971074   0.000000
 Symmetry turned off by external request.
 Stoichiometry    C7H4N2O2
 Framework group  C1[X(C7H4N2O2)]
 Deg. of freedom    39
 Full point group                 C1      NOp   1
 Rotational constants (GHZ):      1.4608577      1.1985805      0.6583930
 Standard basis: Aug-CC-pVDZ (5D, 7F)
 Integral buffers will be    131072 words long.
 Raffenetti 2 integral format.
 Two-electron integral symmetry is turned off.
   289 basis functions,   517 primitive gaussians,   311 cartesian basis functions
    38 alpha electrons       38 beta electrons
       nuclear repulsion energy       537.9027718564 Hartrees.
 NAtoms=   15 NActive=   15 NUniq=   15 SFac= 1.00D+00 NAtFMM=   50 NAOKFM=F Big=F
 One-electron integrals computed using PRISM.
 NBasis=   289 RedAO= T  NBF=   289
 NBsUse=   289 1.00D-06 NBFU=   289
 Initial guess read from the read-write file.
 B after Tr=     0.000000    0.000000    0.000000
         Rot=    1.000000    0.000000    0.000000    0.000000 Ang=   0.00 deg.
 Harris functional with IExCor=  402 diagonalized for initial guess.
 ExpMin= 2.97D-02 ExpMax= 1.17D+04 ExpMxC= 4.01D+02 IAcc=3 IRadAn=         0 AccDes= 0.00D+00
 HarFok:  IExCor=  402 AccDes= 0.00D+00 IRadAn=         0 IDoV= 1
 ScaDFX=  1.000000  1.000000  1.000000  1.000000
 FoFCou: FMM=F IPFlag=           0 FMFlag=      100000 FMFlg1=           0
         NFxFlg=           0 DoJE=T BraDBF=F KetDBF=T FulRan=T
         Omega=  0.000000  0.000000  1.000000  0.000000  0.000000 ICntrl=     500 IOpCl=  0
         NMat0=    1 NMatS0=    1 NMatT0=    0 NMatD0=    1 NMtDS0=    0 NMtDT0=    0
         I1Cent=           4 NGrid=           0.
 Symmetry not used in FoFCou.
 Requested convergence on RMS density matrix=1.00D-08 within 128 cycles.
 Requested convergence on MAX density matrix=1.00D-06.
 Requested convergence on             energy=1.00D-06.
 No special actions if energy rises.
 SCF Done:  E(RB3LYP) =  -529.043723132     A.U. after   12 cycles
             Convg  =    0.8999D-08             -V/T =  2.0061
 QCSCF skips out because SCF is already converged.
 Range of M.O.s used for correlation:     1   289
 NBasis=   289 NAE=    38 NBE=    38 NFC=     0 NFV=     0
 NROrb=    289 NOA=    38 NOB=    38 NVA=   251 NVB=   251

 **** Warning!!: The largest alpha MO coefficient is  0.79665706D+02

 Symmetrizing basis deriv contribution to polar:
 IMax=3 JMax=2 DiffMx= 0.00D+00
 Calling FoFJK, ICntrl=      2147 FMM=F ISym2X=0 I1Cent= 0 IOpClX= 0 NMat=1 NMatS=1 NMatT=0.
 -------------------------------------------------------------------
 Center     Atomic                   Forces (Hartrees/Bohr)
 Number     Number              X              Y              Z
 -------------------------------------------------------------------
      1        6           0.000592815    0.000200725    0.000000010
      2        6           0.000037944    0.001011768    0.000000010
      3        6           0.001764091    0.001473291    0.000000005
      4        6           0.000198585    0.000227802   -0.000000005
      5        6           0.000421161    0.000325339   -0.000000018
      6        6           0.000280947    0.000303145   -0.000000011
      7        1           0.000051112    0.000015828    0.000000002
      8        1           0.000033813    0.000025769   -0.000000002
      9        7          -0.003351814   -0.001241980    0.000000001
     10        7          -0.000249057   -0.002431247   -0.000000001
     11        1           0.000026953    0.000023740   -0.000000002
     12        6           0.000062049   -0.000039808    0.000000003
     13        8           0.000130103   -0.000021720    0.000000033
     14        8          -0.000005640    0.000105313   -0.000000024
     15        1           0.000006937    0.000022036   -0.000000001
 -------------------------------------------------------------------
 Cartesian Forces:  Max     0.003351814 RMS     0.000760635
 IRC-IRC-IRC-IRC-IRC-IRC-IRC-IRC-IRC-IRC-IRC-IRC-IRC-IRC-IRC-IRC-IRC-IRC
 Pt  6 Step number   1 out of a maximum of1000
 CORRECTOR INTEGRATION CONVERGENCE:
   Recorrection delta-x convergence threshold:    0.010000
   Delta-x Convergence Met
 Point Number:   6          Path Number:   1
   CHANGE IN THE REACTION COORDINATE =    0.03578
   NET REACTION COORDINATE UP TO THIS POINT =    0.21458
  # OF POINTS ALONG THE PATH =   6
  # OF STEPS =   1

 Calculating another point on the path.
 IRC-IRC-IRC-IRC-IRC-IRC-IRC-IRC-IRC-IRC-IRC-IRC-IRC-IRC-IRC-IRC-IRC-IRC
                          Input orientation:                          
 ---------------------------------------------------------------------
 Center     Atomic      Atomic             Coordinates (Angstroms)
 Number     Number       Type             X           Y           Z
 ---------------------------------------------------------------------
      1          6           0       -2.717999    0.216180    0.000000
      2          6           0       -1.730128    1.242553    0.000000
      3          6           0       -0.484229    0.730856    0.000000
      4          6           0       -0.000355   -0.596973    0.000000
      5          6           0       -1.027107   -1.545910    0.000000
      6          6           0       -2.374511   -1.138357    0.000000
      7          1           0       -3.778589    0.484243    0.000000
      8          1           0       -0.755228   -2.600047   -0.000001
      9          7           0        0.581735    1.886950    0.000000
     10          7           0        1.039483    2.900544    0.000000
     11          1           0       -3.154734   -1.902815    0.000000
     12          6           0        1.406136   -1.070427   -0.000001
     13          8           0        1.747722   -2.233085   -0.000009
     14          8           0        2.314022   -0.053542    0.000010
     15          1           0        3.192940   -0.466425    0.000008
 ---------------------------------------------------------------------
                    Distance matrix (angstroms):
                    1          2          3          4          5
     1  C    0.000000
     2  C    1.424545   0.000000
     3  C    2.292295   1.346885   0.000000
     4  C    2.836690   2.525069   1.413246   0.000000
     5  C    2.442146   2.875720   2.340593   1.398106   0.000000
     6  C    1.397410   2.466569   2.658406   2.435100   1.407692
     7  H    1.093942   2.184314   3.303578   3.929896   3.419382
     8  H    3.432725   3.964341   3.341908   2.140593   1.088634
     9  N    3.698610   2.399991   1.572525   2.551216   3.791161
    10  N    4.617843   3.227953   2.651272   3.648820   4.903238
    11  H    2.163534   3.452947   3.750709   3.413991   2.157355
    12  C    4.320168   3.896926   2.611149   1.484040   2.479265
    13  O    5.093286   4.916859   3.710330   2.394292   2.858651
    14  O    5.039245   4.246765   2.906113   2.377321   3.659276
    15  H    5.950223   5.211258   3.867176   3.195962   4.355925
                    6          7          8          9         10
     6  C    0.000000
     7  H    2.145756   0.000000
     8  H    2.181425   4.318976   0.000000
     9  N    4.229878   4.580395   4.681945   0.000000
    10  N    5.288485   5.390021   5.785973   1.112162   0.000000
    11  H    1.092312   2.467234   2.498752   5.321985   6.376811
    12  C    3.781257   5.412798   2.647873   3.070133   3.987862
    13  O    4.265118   6.158246   2.529708   4.281847   5.182253
    14  O    4.812397   6.116300   3.988105   2.601217   3.217309
    15  H    5.607852   7.036049   4.487802   3.515219   3.996731
                   11         12         13         14         15
    11  H    0.000000
    12  C    4.636206   0.000000
    13  O    4.913568   1.211798   0.000000
    14  O    5.772963   1.363199   2.251910   0.000000
    15  H    6.508163   1.886130   2.282486   0.971066   0.000000
 Symmetry turned off by external request.
 Stoichiometry    C7H4N2O2
 Framework group  C1[X(C7H4N2O2)]
 Deg. of freedom    39
 Full point group                 C1      NOp   1
 Rotational constants (GHZ):      1.4618970      1.1989471      0.6587147
 Standard basis: Aug-CC-pVDZ (5D, 7F)
 Integral buffers will be    131072 words long.
 Raffenetti 2 integral format.
 Two-electron integral symmetry is turned off.
   289 basis functions,   517 primitive gaussians,   311 cartesian basis functions
    38 alpha electrons       38 beta electrons
       nuclear repulsion energy       537.9911476849 Hartrees.
 NAtoms=   15 NActive=   15 NUniq=   15 SFac= 1.00D+00 NAtFMM=   50 NAOKFM=F Big=F
 One-electron integrals computed using PRISM.
 NBasis=   289 RedAO= T  NBF=   289
 NBsUse=   289 1.00D-06 NBFU=   289
 Initial guess read from the read-write file.
 B after Tr=     0.000000    0.000000    0.000000
         Rot=    1.000000    0.000000    0.000000    0.000000 Ang=   0.00 deg.
 Harris functional with IExCor=  402 diagonalized for initial guess.
 ExpMin= 2.97D-02 ExpMax= 1.17D+04 ExpMxC= 4.01D+02 IAcc=3 IRadAn=         0 AccDes= 0.00D+00
 HarFok:  IExCor=  402 AccDes= 0.00D+00 IRadAn=         0 IDoV= 1
 ScaDFX=  1.000000  1.000000  1.000000  1.000000
 FoFCou: FMM=F IPFlag=           0 FMFlag=      100000 FMFlg1=           0
         NFxFlg=           0 DoJE=T BraDBF=F KetDBF=T FulRan=T
         Omega=  0.000000  0.000000  1.000000  0.000000  0.000000 ICntrl=     500 IOpCl=  0
         NMat0=    1 NMatS0=    1 NMatT0=    0 NMatD0=    1 NMtDS0=    0 NMtDT0=    0
         I1Cent=           4 NGrid=           0.
 Symmetry not used in FoFCou.
 Requested convergence on RMS density matrix=1.00D-08 within 128 cycles.
 Requested convergence on MAX density matrix=1.00D-06.
 Requested convergence on             energy=1.00D-06.
 No special actions if energy rises.
 SCF Done:  E(RB3LYP) =  -529.043776549     A.U. after   12 cycles
             Convg  =    0.7787D-08             -V/T =  2.0062
 QCSCF skips out because SCF is already converged.
 Range of M.O.s used for correlation:     1   289
 NBasis=   289 NAE=    38 NBE=    38 NFC=     0 NFV=     0
 NROrb=    289 NOA=    38 NOB=    38 NVA=   251 NVB=   251

 **** Warning!!: The largest alpha MO coefficient is  0.79578108D+02

 Symmetrizing basis deriv contribution to polar:
 IMax=3 JMax=2 DiffMx= 0.00D+00
 Calling FoFJK, ICntrl=      2147 FMM=F ISym2X=0 I1Cent= 0 IOpClX= 0 NMat=1 NMatS=1 NMatT=0.
 -------------------------------------------------------------------
 Center     Atomic                   Forces (Hartrees/Bohr)
 Number     Number              X              Y              Z
 -------------------------------------------------------------------
[...]
 415                   -0.00052  -0.39347
 416                   -0.00043  -0.35769
 417                   -0.00035  -0.32191
 418                   -0.00028  -0.28614
 419                   -0.00021  -0.25036
 420                   -0.00016  -0.21459
 421                   -0.00011  -0.17881
 422                   -0.00007  -0.14304
 423                   -0.00004  -0.10726
 424                   -0.00002  -0.07149
 425                    0.00000  -0.03574
 426                    0.00000   0.00000
 427                    0.00000   0.03576
 428                   -0.00002   0.07148
 429                   -0.00004   0.10726
 430                   -0.00007   0.14303
 431                   -0.00011   0.17881
 432                   -0.00015   0.21458
 433                   -0.00020   0.25036
 434                   -0.00027   0.28613
 435                   -0.00033   0.32191
 436                   -0.00041   0.35768
 437                   -0.00049   0.39346
 438                   -0.00058   0.42923
 439                   -0.00067   0.46501
 440                   -0.00077   0.50079
 441                   -0.00087   0.53656
 442                   -0.00098   0.57234
 443                   -0.00109   0.60811
 444                   -0.00120   0.64389
 445                   -0.00131   0.67967
 446                   -0.00143   0.71544
 447                   -0.00155   0.75122
 448                   -0.00166   0.78699
 449                   -0.00178   0.82277
 450                   -0.00189   0.85855
 451                   -0.00201   0.89432
 452                   -0.00212   0.93010
 453                   -0.00222   0.96587
 454                   -0.00233   1.00165
 455                   -0.00243   1.03742
 456                   -0.00252   1.07320
 457                   -0.00261   1.10897
 458                   -0.00269   1.14474
 459                   -0.00277   1.18051
 460                   -0.00284   1.21628
 461                   -0.00290   1.25205
 462                   -0.00296   1.28782
 463                   -0.00301   1.32358
 464                   -0.00306   1.35934
 465                   -0.00310   1.39509
 466                   -0.00314   1.43084
 467                   -0.00317   1.46659
 468                   -0.00320   1.50234
 469                   -0.00322   1.53809
 470                   -0.00324   1.57385
 471                   -0.00326   1.60961
 472                   -0.00328   1.64537
 473                   -0.00330   1.68113
 474                   -0.00331   1.71689
 475                   -0.00333   1.75266
 476                   -0.00334   1.78842
 477                   -0.00335   1.82418
 478                   -0.00335   1.85993
 479                   -0.00336   1.89562
 480                   -0.00337   1.93100
 481                   -0.00337   1.96555
 482                   -0.00337   2.00125
 483                   -0.00337   2.03731
 --------------------------------------------------------------------------
 
 Total number of points:                  482
 Total number of gradient calculations:   484
 Total number of Hessian calculations:      1
 IRC-IRC-IRC-IRC-IRC-IRC-IRC-IRC-IRC-IRC-IRC-IRC-IRC-IRC-IRC-IRC-IRC-IRC
                          Input orientation:                          
 ---------------------------------------------------------------------
 Center     Atomic      Atomic             Coordinates (Angstroms)
 Number     Number       Type             X           Y           Z
 ---------------------------------------------------------------------
      1          6           0       -2.914883   -0.015320    0.000001
      2          6           0       -1.791705    0.796190    0.000006
      3          6           0       -0.589918    0.446959    0.000007
      4          6           0       -0.118903   -0.862432    0.000002
      5          6           0       -1.192425   -1.789325   -0.000004
      6          6           0       -2.535955   -1.381293   -0.000004
      7          1           0       -3.955770    0.302612    0.000001
      8          1           0       -0.943917   -2.851119   -0.000009
      9          7           0        1.585957    3.029466   -0.000041
     10          7           0        1.158724    4.047545    0.000025
     11          1           0       -3.320770   -2.139751   -0.000009
     12          6           0        1.293269   -1.319055    0.000002
     13          8           0        1.642812   -2.481662   -0.000006
     14          8           0        2.167511   -0.285055    0.000013
     15          1           0        3.057416   -0.672778    0.000012
 ---------------------------------------------------------------------
                    Distance matrix (angstroms):
                    1          2          3          4          5
     1  C    0.000000
     2  C    1.385669   0.000000
     3  C    2.370478   1.251501   0.000000
     4  C    2.921490   2.355694   1.391532   0.000000
     5  C    2.472642   2.654058   2.316027   1.418302   0.000000
     6  C    1.417557   2.301160   2.670125   2.472116   1.404124
     7  H    1.088359   2.219639   3.368946   4.009848   3.465873
     8  H    3.453471   3.744543   3.317021   2.153026   1.090487
     9  N    5.433994   4.049213   3.376948   4.248932   5.562388
    10  N    5.753360   4.390483   4.002745   5.073481   6.292611
    11  H    2.162857   3.310255   3.761466   3.447245   2.157001
    12  C    4.405483   3.740498   2.581705   1.484161   2.529789
    13  O    5.182223   4.747654   3.682649   2.392812   2.918545
    14  O    5.089547   4.104203   2.852938   2.358188   3.681304
    15  H    6.008379   5.066739   3.815345   3.181976   4.394067
                    6          7          8          9         10
     6  C    0.000000
     7  H    2.202592   0.000000
     8  H    2.166789   4.360881   0.000000
     9  N    6.036966   6.176283   6.401683   0.000000
    10  N    6.566805   6.338972   7.211980   1.104089   0.000000
    11  H    1.091418   2.523561   2.481023   7.127186   7.638619
    12  C    3.829730   5.493835   2.711498   4.358361   5.368287
    13  O    4.321217   6.252704   2.612980   5.511422   6.547128
    14  O    4.829527   6.151416   4.033071   3.365154   4.448492
    15  H    5.638067   7.080690   4.555857   3.983944   5.087876
                   11         12         13         14         15
    11  H    0.000000
    12  C    4.686460   0.000000
    13  O    4.975345   1.214016   0.000000
    14  O    5.793196   1.354051   2.258404   0.000000
    15  H    6.544713   1.878799   2.296337   0.970701   0.000000
 Symmetry turned off by external request.
 Stoichiometry    C7H4N2O2
 Framework group  C1[X(C7H4N2O2)]
 Deg. of freedom    39
 Full point group                 C1      NOp   1
 Rotational constants (GHZ):      1.2209873      0.8060612      0.4855288

 **********************************************************************

            Population analysis using the SCF density.

 **********************************************************************

 Alpha  occ. eigenvalues --  -19.20867 -19.15274 -14.44030 -14.43871 -10.33768
 Alpha  occ. eigenvalues --  -10.24985 -10.24777 -10.22638 -10.22581 -10.22365
 Alpha  occ. eigenvalues --  -10.22157  -1.12583  -1.12508  -1.03580  -0.89881
 Alpha  occ. eigenvalues --   -0.79781  -0.76956  -0.69336  -0.62230  -0.59864
 Alpha  occ. eigenvalues --   -0.55406  -0.54240  -0.51219  -0.50033  -0.47643
 Alpha  occ. eigenvalues --   -0.46879  -0.46293  -0.46282  -0.43383  -0.42650
 Alpha  occ. eigenvalues --   -0.41346  -0.40786  -0.40334  -0.34036  -0.31100
 Alpha  occ. eigenvalues --   -0.28936  -0.28742  -0.28130
 Alpha virt. eigenvalues --   -0.10196  -0.08359  -0.03114  -0.02812  -0.01991
 Alpha virt. eigenvalues --   -0.01328  -0.00568   0.01124   0.02474   0.02798
 Alpha virt. eigenvalues --    0.03822   0.03834   0.04887   0.06421   0.06526
 Alpha virt. eigenvalues --    0.06714   0.07204   0.07552   0.08207   0.08327
 Alpha virt. eigenvalues --    0.09581   0.09726   0.10280   0.10460   0.11158
 Alpha virt. eigenvalues --    0.11386   0.11757   0.12547   0.13159   0.13473
 Alpha virt. eigenvalues --    0.14786   0.15885   0.16196   0.16756   0.17363
 Alpha virt. eigenvalues --    0.17763   0.19312   0.19715   0.19807   0.20453
 Alpha virt. eigenvalues --    0.20697   0.21193   0.21630   0.21648   0.22537
 Alpha virt. eigenvalues --    0.23104   0.23467   0.23757   0.24055   0.24827
 Alpha virt. eigenvalues --    0.25258   0.26016   0.26406   0.27028   0.27616
 Alpha virt. eigenvalues --    0.28246   0.28689   0.29999   0.31052   0.31656
 Alpha virt. eigenvalues --    0.32554   0.32577   0.33582   0.34203   0.34782
 Alpha virt. eigenvalues --    0.36881   0.37613   0.38101   0.38836   0.39700
 Alpha virt. eigenvalues --    0.40375   0.40914   0.41166   0.42833   0.45864
 Alpha virt. eigenvalues --    0.46226   0.47174   0.48194   0.48654   0.49284
 Alpha virt. eigenvalues --    0.50028   0.50501   0.50837   0.51790   0.52909
 Alpha virt. eigenvalues --    0.53923   0.53966   0.54787   0.55309   0.56751
 Alpha virt. eigenvalues --    0.56862   0.57059   0.57207   0.58236   0.59466
 Alpha virt. eigenvalues --    0.59504   0.60748   0.60907   0.63000   0.63055
 Alpha virt. eigenvalues --    0.63697   0.64420   0.65676   0.66730   0.68773
 Alpha virt. eigenvalues --    0.68880   0.69147   0.70102   0.70828   0.71853
 Alpha virt. eigenvalues --    0.72619   0.72777   0.74931   0.75689   0.75809
 Alpha virt. eigenvalues --    0.76229   0.76238   0.78327   0.78814   0.80472
 Alpha virt. eigenvalues --    0.81239   0.81628   0.82562   0.83686   0.84455
 Alpha virt. eigenvalues --    0.85700   0.85837   0.87586   0.88764   0.90150
 Alpha virt. eigenvalues --    0.90710   0.91291   0.92252   0.95014   0.95626
 Alpha virt. eigenvalues --    0.97490   1.00737   1.03034   1.03298   1.04303
 Alpha virt. eigenvalues --    1.05015   1.06102   1.06732   1.10650   1.13958
 Alpha virt. eigenvalues --    1.14275   1.17161   1.18320   1.19198   1.21272
 Alpha virt. eigenvalues --    1.21878   1.22933   1.24187   1.24770   1.25570
 Alpha virt. eigenvalues --    1.27392   1.29087   1.31244   1.31988   1.32087
 Alpha virt. eigenvalues --    1.36500   1.38178   1.40108   1.40115   1.41163
 Alpha virt. eigenvalues --    1.43520   1.43532   1.46811   1.47223   1.50564
 Alpha virt. eigenvalues --    1.50571   1.51703   1.53844   1.53932   1.59331
 Alpha virt. eigenvalues --    1.59392   1.59796   1.62646   1.63479   1.65102
 Alpha virt. eigenvalues --    1.65483   1.66718   1.67743   1.69628   1.71177
 Alpha virt. eigenvalues --    1.74027   1.75322   1.75940   1.79900   1.80420
 Alpha virt. eigenvalues --    1.83280   1.85194   1.87502   1.89184   1.89506
 Alpha virt. eigenvalues --    1.90862   1.92563   1.93719   1.95880   1.98786
 Alpha virt. eigenvalues --    1.99569   2.00843   2.01377   2.02561   2.04097
 Alpha virt. eigenvalues --    2.05699   2.05760   2.09178   2.09899   2.10786
 Alpha virt. eigenvalues --    2.19508   2.21330   2.25492   2.25520   2.34812
 Alpha virt. eigenvalues --    2.34903   2.36141   2.36250   2.40802   2.42947
 Alpha virt. eigenvalues --    2.46885   2.51345   2.52149   2.59951   2.64573
 Alpha virt. eigenvalues --    2.70177   2.75405   2.75934   2.79370   2.80720
 Alpha virt. eigenvalues --    2.81453   2.83317   2.87345   2.91851   2.97524
 Alpha virt. eigenvalues --    3.02186   3.04636   3.09924   3.22398   3.29239
 Alpha virt. eigenvalues --    3.31500   3.32847   3.36683   3.39837   3.41719
 Alpha virt. eigenvalues --    3.47491   3.51753   3.66954   3.78456   3.86776
 Alpha virt. eigenvalues --    3.98114
          Condensed to atoms (all electrons):
              1          2          3          4          5          6
     1  C    8.122021  -0.445959   0.417978  -1.555255   0.771169  -1.035373
     2  C   -0.445959   9.308471  -0.896024  -0.317149  -1.787918   1.215240
     3  C    0.417978  -0.896024  13.807795  -2.703149  -1.171969  -2.299489
     4  C   -1.555255  -0.317149  -2.703149  14.375448  -2.366532  -0.661625
     5  C    0.771169  -1.787918  -1.171969  -2.366532  16.406078  -2.958951
     6  C   -1.035373   1.215240  -2.299489  -0.661625  -2.958951  12.122415
     7  H   -0.964896   0.423803   0.097828   0.114399  -0.420859   0.229965
     8  H   -0.129713   0.179067  -0.470601   0.258842  -1.900452   1.012111
     9  N   -0.020736  -0.035041  -0.013546   0.055506   0.003263   0.008535
    10  N    0.017493   0.015370   0.009065  -0.024541   0.004520  -0.006692
    11  H    0.167793  -0.345154   0.100131  -0.026226   1.200097  -1.637318
    12  C   -0.139910  -0.148395  -1.210058  -2.974647  -2.702743  -0.289506
    13  O    0.022999  -0.015975   0.079627   0.100953   0.073187  -0.144430
    14  O    0.037082   0.033939   0.254853   0.080663  -0.055099  -0.096801
    15  H   -0.005406  -0.010929  -0.055958   0.120930   0.004143   0.013896
              7          8          9         10         11         12
     1  C   -0.964896  -0.129713  -0.020736   0.017493   0.167793  -0.139910
     2  C    0.423803   0.179067  -0.035041   0.015370  -0.345154  -0.148395
     3  C    0.097828  -0.470601  -0.013546   0.009065   0.100131  -1.210058
     4  C    0.114399   0.258842   0.055506  -0.024541  -0.026226  -2.974647
     5  C   -0.420859  -1.900452   0.003263   0.004520   1.200097  -2.702743
     6  C    0.229965   1.012111   0.008535  -0.006692  -1.637318  -0.289506
     7  H    2.299230  -0.004769   0.000260  -0.000049  -0.165976  -0.007705
     8  H   -0.004769   3.118592  -0.000160   0.000000  -0.229932   0.239891
     9  N    0.000260  -0.000160   7.322660  -0.416415   0.000163  -0.021227
    10  N   -0.000049   0.000000  -0.416415   7.567021  -0.000075  -0.020709
    11  H   -0.165976  -0.229932   0.000163  -0.000075   2.681958   0.017585
    12  C   -0.007705   0.239891  -0.021227  -0.020709   0.017585  13.268228
    13  O    0.000743  -0.098565  -0.001175   0.000062  -0.000821   0.016255
    14  O    0.000468  -0.016380  -0.016471  -0.004298  -0.000906  -0.509506
    15  H   -0.000032   0.002701   0.003892  -0.000113   0.000382  -0.123982
             13         14         15
     1  C    0.022999   0.037082  -0.005406
     2  C   -0.015975   0.033939  -0.010929
     3  C    0.079627   0.254853  -0.055958
     4  C    0.100953   0.080663   0.120930
     5  C    0.073187  -0.055099   0.004143
     6  C   -0.144430  -0.096801   0.013896
     7  H    0.000743   0.000468  -0.000032
     8  H   -0.098565  -0.016380   0.002701
     9  N   -0.001175  -0.016471   0.003892
    10  N    0.000062  -0.004298  -0.000113
    11  H   -0.000821  -0.000906   0.000382
    12  C    0.016255  -0.509506  -0.123982
    13  O    8.522394   0.010043  -0.010333
    14  O    0.010043   8.611438   0.233023
    15  H   -0.010333   0.233023   0.555668
 Mulliken atomic charges:
              1
     1  C    0.740715
     2  C   -1.173346
     3  C    0.053518
     4  C    1.522382
     5  C    0.902065
     6  C    0.528024
     7  H   -0.602410
     8  H   -0.960633
     9  N    0.130493
    10  N   -0.140639
    11  H   -0.761702
    12  C    0.606430
    13  O   -0.554963
    14  O   -0.562050
    15  H    0.272117
 Sum of Mulliken atomic charges =   0.00000
 Mulliken charges with hydrogens summed into heavy atoms:
              1
     1  C    0.138305
     2  C   -1.173346
     3  C    0.053518
     4  C    1.522382
     5  C   -0.058568
     6  C   -0.233678
     9  N    0.130493
    10  N   -0.140639
    12  C    0.606430
    13  O   -0.554963
    14  O   -0.289933
 Sum of Mulliken charges with hydrogens summed into heavy atoms =   0.00000
 APT atomic charges:
              1
     1  C    0.505793
     2  C   -0.010392
     3  C   -0.167903
     4  C    1.146015
     5  C   -0.499224
     6  C    0.125114
     7  H   -0.036827
     8  H   -0.279380
     9  N   -0.818245
    10  N    0.791115
    11  H   -0.125136
    12  C   -0.688720
    13  O    0.330121
    14  O   -1.097005
    15  H    0.824675
 Sum of APT charges=   0.00000
 APT Atomic charges with hydrogens summed into heavy atoms:
              1
     1  C    0.468965
     2  C   -0.010392
     3  C   -0.167903
     4  C    1.146015
     5  C   -0.778604
     6  C   -0.000022
     7  H    0.000000
     8  H    0.000000
     9  N   -0.818245
    10  N    0.791115
    11  H    0.000000
    12  C   -0.688720
    13  O    0.330121
    14  O   -0.272330
    15  H    0.000000
 Sum of APT charges=   0.00000
 Electronic spatial extent (au):  <R**2>=           2082.0986
 Charge=              0.0000 electrons
 Dipole moment (field-independent basis, Debye):
    X=             -1.6187    Y=              0.1161    Z=              0.0000  Tot=              1.6228
 Quadrupole moment (field-independent basis, Debye-Ang):
   XX=            -48.6663   YY=            -69.2453   ZZ=            -63.3083
   XY=              5.5434   XZ=              0.0001   YZ=             -0.0001
 Traceless Quadrupole moment (field-independent basis, Debye-Ang):
   XX=             11.7403   YY=             -8.8387   ZZ=             -2.9017
   XY=              5.5434   XZ=              0.0001   YZ=             -0.0001
 Octapole moment (field-independent basis, Debye-Ang**2):
  XXX=             22.6304  YYY=              8.7472  ZZZ=              0.0000  XYY=            -10.9270
  XXY=              0.5355  XXZ=              0.0002  XZZ=             15.5809  YZZ=              4.4162
  YYZ=             -0.0005  XYZ=             -0.0001
 Hexadecapole moment (field-independent basis, Debye-Ang**3):
 XXXX=          -1008.1827 YYYY=          -1553.8093 ZZZZ=            -67.6695 XXXY=           -114.8231
 XXXZ=              0.0009 YYYX=            -49.1654 YYYZ=             -0.0034 ZZZX=              0.0001
 ZZZY=             -0.0003 XXYY=           -448.8427 XXZZ=           -233.5867 YYZZ=           -248.3955
 XXYZ=              0.0000 YYXZ=              0.0000 ZZXY=            -44.4074
 N-N= 4.986350123432D+02 E-N=-2.232007542579D+03  KE= 5.258329647949D+02
  Exact polarizability:   0.000   0.000   0.000   0.000   0.000   0.000
 Approx polarizability: 234.008 -24.347 197.502   0.000   0.001  90.284
 -------------------------------------------------------------------
 Center     Atomic                   Forces (Hartrees/Bohr)
 Number     Number              X              Y              Z
 -------------------------------------------------------------------
      1        6          -0.000055082   -0.000090099    0.000000000
      2        6           0.000079194   -0.000140999    0.000000005
      3        6          -0.000108487   -0.000104856    0.000000006
      4        6          -0.000056654   -0.000133809    0.000000003
      5        6          -0.000069678   -0.000115453   -0.000000002
      6        6          -0.000049163   -0.000107284   -0.000000004
      7        1           0.000000993   -0.000006280    0.000000000
      8        1          -0.000002786   -0.000004124    0.000000000
      9        7           0.000759639    0.000528267   -0.000000101
     10        7          -0.000284429    0.000728936    0.000000074
     11        1          -0.000003274   -0.000003726    0.000000000
     12        6          -0.000053441   -0.000146112    0.000000005
     13        8          -0.000079077   -0.000198900    0.000000007
     14        8          -0.000074128   -0.000198080    0.000000008
     15        1          -0.000003627   -0.000007481    0.000000000
 -------------------------------------------------------------------
 Cartesian Forces:  Max     0.000759639 RMS     0.000194169

 This type of calculation cannot be archived.


 THE SOLUTION TO A PROBLEM CHANGES THE PROBLEM.

                                 -- JOHN PEERS
           PAUL DICKSON'S "THE OFFICIAL RULES"
 Job cpu time:  4 days  2 hours 29 minutes 59.1 seconds.
 File lengths (MBytes):  RWF=    143 Int=      0 D2E=      0 Chk=     22 Scr=      1
 Normal termination of Gaussian 09 at Thu Dec 20 23:35:21 2018.
