 Entering Gaussian System, Link 0=/home/ubuntu/g09/g09
 Input=2-NO2-C6H3-IRC.gjf
 Output=2-NO2-C6H3-IRC.log
 Initial command:
 /home/ubuntu/g09/l1.exe /home/ubuntu/g09/Gau-1197.inp -scrdir=/home/ubuntu/g09/
 Entering Link 1 = /home/ubuntu/g09/l1.exe PID=      1199.
  
 Copyright (c) 1988,1990,1992,1993,1995,1998,2003,2009,2010,
            Gaussian, Inc.  All Rights Reserved.
  
 This is part of the Gaussian(R) 09 program.  It is based on
 the Gaussian(R) 03 system (copyright 2003, Gaussian, Inc.),
 the Gaussian(R) 98 system (copyright 1998, Gaussian, Inc.),
 the Gaussian(R) 94 system (copyright 1995, Gaussian, Inc.),
 the Gaussian 92(TM) system (copyright 1992, Gaussian, Inc.),
 the Gaussian 90(TM) system (copyright 1990, Gaussian, Inc.),
 the Gaussian 88(TM) system (copyright 1988, Gaussian, Inc.),
 the Gaussian 86(TM) system (copyright 1986, Carnegie Mellon
 University), and the Gaussian 82(TM) system (copyright 1983,
 Carnegie Mellon University). Gaussian is a federally registered
 trademark of Gaussian, Inc.
  
 This software contains proprietary and confidential information,
 including trade secrets, belonging to Gaussian, Inc.
  
 This software is provided under written license and may be
 used, copied, transmitted, or stored only in accord with that
 written license.
  
 The following legend is applicable only to US Government
 contracts under FAR:
  
                    RESTRICTED RIGHTS LEGEND
  
 Use, reproduction and disclosure by the US Government is
 subject to restrictions as set forth in subparagraphs (a)
 and (c) of the Commercial Computer Software - Restricted
 Rights clause in FAR 52.227-19.
  
 Gaussian, Inc.
 340 Quinnipiac St., Bldg. 40, Wallingford CT 06492
  
  
 ---------------------------------------------------------------
 Warning -- This program may not be used in any manner that
 competes with the business of Gaussian, Inc. or will provide
 assistance to any competitor of Gaussian, Inc.  The licensee
 of this program is prohibited from giving any competitor of
 Gaussian, Inc. access to this program.  By using this program,
 the user acknowledges that Gaussian, Inc. is engaged in the
 business of creating and licensing software in the field of
 computational chemistry and represents and warrants to the
 licensee that it is not a competitor of Gaussian, Inc. and that
 it will not use this program in any manner prohibited above.
 ---------------------------------------------------------------
  

 Cite this work as:
 Gaussian 09, Revision B.01,
 M. J. Frisch, G. W. Trucks, H. B. Schlegel, G. E. Scuseria, 
 M. A. Robb, J. R. Cheeseman, G. Scalmani, V. Barone, B. Mennucci, 
 G. A. Petersson, H. Nakatsuji, M. Caricato, X. Li, H. P. Hratchian, 
 A. F. Izmaylov, J. Bloino, G. Zheng, J. L. Sonnenberg, M. Hada, 
 M. Ehara, K. Toyota, R. Fukuda, J. Hasegawa, M. Ishida, T. Nakajima, 
 Y. Honda, O. Kitao, H. Nakai, T. Vreven, J. A. Montgomery, Jr., 
 J. E. Peralta, F. Ogliaro, M. Bearpark, J. J. Heyd, E. Brothers, 
 K. N. Kudin, V. N. Staroverov, T. Keith, R. Kobayashi, J. Normand, 
 K. Raghavachari, A. Rendell, J. C. Burant, S. S. Iyengar, J. Tomasi, 
 M. Cossi, N. Rega, J. M. Millam, M. Klene, J. E. Knox, J. B. Cross, 
 V. Bakken, C. Adamo, J. Jaramillo, R. Gomperts, R. E. Stratmann, 
 O. Yazyev, A. J. Austin, R. Cammi, C. Pomelli, J. W. Ochterski, 
 R. L. Martin, K. Morokuma, V. G. Zakrzewski, G. A. Voth, 
 P. Salvador, J. J. Dannenberg, S. Dapprich, A. D. Daniels, 
 O. Farkas, J. B. Foresman, J. V. Ortiz, J. Cioslowski, 
 and D. J. Fox, Gaussian, Inc., Wallingford CT, 2010.
 
 ******************************************
 Gaussian 09:  EM64L-G09RevB.01 12-Aug-2010
                20-Dec-2018 
 ******************************************
 %chk=2-NO2-C6H3-IRC.chk
 %mem=500MW
 %nproc=7
 Will use up to    7 processors via shared memory.
 ----------------------------------------------------------------------
 # rb3lyp/aug-cc-pVDZ irc=(calcfc,maxcycle=1000,maxpoints=10000,stepsiz
 e=1) scf=(xqc,maxcycle=1000) nosymm
 ----------------------------------------------------------------------
 1/6=1000,10=4,14=-1,18=10,26=3,38=1,39=1,42=10000,44=3/1,23;
 2/12=2,15=1,17=6,18=5,29=1,40=1/2;
 3/5=16,7=10,11=2,16=1,25=1,30=1,71=2,74=-5,116=1/1,2,3;
 4//1;
 5/5=2,7=1000,8=3,13=1,38=5/2,8;
 8/6=4,10=90,11=11/1;
 11/6=1,8=1,9=11,15=111,16=1,31=1/1,2,10;
 10/6=1,7=6,13=1,31=1/2;
 6/7=2,8=2,9=2,10=2,28=1/1;
 7/10=1,18=20,25=1,30=1/1,2,3,16;
 1/6=1000,10=4,14=-1,18=10,39=1,42=10000,44=3/23(3);
 2/15=1,29=1/2;
 7/9=1,25=1,30=1,44=-1/16;
 99/5=20/99;
 2/15=1,29=1/2;
 3/5=16,7=10,11=2,16=1,25=1,30=1,71=2,74=-5,116=1/1,2,3;
 4/5=5,16=3/1;
 5/5=2,7=1000,8=3,13=1,38=5/2,8;
 8/6=4,10=90,11=11/1;
 11/6=1,8=1,9=11,15=111,16=1,31=1/1,2,10;
 10/6=1,7=6,13=1,31=1/2;
 7/10=1,18=20,25=1,30=1/1,2,3,16;
 1/6=1000,14=-1,18=10,39=1,42=10000,44=3/23(-8);
 2/15=1,29=1/2;
 6/7=2,8=2,9=2,10=2,19=2,28=1/1;
 7/9=1,25=1,30=1,44=-1/16;
 99/5=20,9=1/99;
 ----------
 2-NO2-C6H3
 ----------
 Symbolic Z-matrix:
 Charge =  0 Multiplicity = 1
 C                     2.60063   0.57394   0. 
 C                     1.48479   1.45699   0. 
 C                     0.32594   0.80902   0. 
 C                     0.03255  -0.56095   0. 
 C                     1.14913  -1.39356   0. 
 C                     2.43173  -0.81507   0. 
 H                     3.61783   0.97505   0. 
 N                    -0.96428   1.80834   0. 
 N                    -1.51618   2.77092   0. 
 H                     3.3022   -1.474     0. 
 H                     1.00393  -2.47121   0. 
 N                    -1.31227  -1.13451   0. 
 O                    -2.26073  -0.34213   0.00001 
 O                    -1.4297   -2.35352   0. 
 
 IRC-IRC-IRC-IRC-IRC-IRC-IRC-IRC-IRC-IRC-IRC-IRC-IRC-IRC-IRC-IRC-IRC-IRC
 ------------------------------------------------------------------------
 INPUT DATA FOR L123
 ------------------------------------------------------------------------
 GENERAL PARAMETERS:
 Follow reaction path in both directions.
 Maximum points per path      =****
 Step size                    =   0.010 bohr
 Integration scheme           = HPC                                 
    Redo corrector integration= Yes                                 
    Max correction cycles     =1000
 Initial Hessian              = CalcFC
 Hessian eveluation           = All updating
    Hessian updating method   = Bofill                              
 ------------------------------------------------------------------------
 IRC-IRC-IRC-IRC-IRC-IRC-IRC-IRC-IRC-IRC-IRC-IRC-IRC-IRC-IRC-IRC-IRC-IRC
                          Input orientation:                          
 ---------------------------------------------------------------------
 Center     Atomic      Atomic             Coordinates (Angstroms)
 Number     Number       Type             X           Y           Z
 ---------------------------------------------------------------------
      1          6           0        2.600630    0.573940    0.000000
      2          6           0        1.484790    1.456990    0.000000
      3          6           0        0.325940    0.809020    0.000000
      4          6           0        0.032550   -0.560950    0.000000
      5          6           0        1.149130   -1.393560    0.000000
      6          6           0        2.431730   -0.815070    0.000000
      7          1           0        3.617830    0.975050    0.000000
      8          7           0       -0.964280    1.808340    0.000000
      9          7           0       -1.516180    2.770920    0.000000
     10          1           0        3.302200   -1.474000    0.000000
     11          1           0        1.003930   -2.471210    0.000000
     12          7           0       -1.312270   -1.134510    0.000000
     13          8           0       -2.260730   -0.342130    0.000010
     14          8           0       -1.429700   -2.353520    0.000000
 ---------------------------------------------------------------------
                    Distance matrix (angstroms):
                    1          2          3          4          5
     1  C    0.000000
     2  C    1.422981   0.000000
     3  C    2.286805   1.327704   0.000000
     4  C    2.807670   2.486178   1.401034   0.000000
     5  C    2.444976   2.870244   2.351383   1.392835   0.000000
     6  C    1.399241   2.461494   2.659327   2.412601   1.407023
     7  H    1.093428   2.186807   3.296074   3.900452   3.421227
     8  N    3.772576   2.474144   1.631964   2.570448   3.836491
     9  N    4.666353   3.276009   2.691181   3.674224   4.944368
    10  H    2.164777   3.448722   3.751040   3.394742   2.154572
    11  H    3.438370   3.957522   3.349564   2.143052   1.087388
    12  N    4.269612   3.813059   2.541858   1.462023   2.474994
    13  O    4.946919   4.155208   2.831256   2.303696   3.568284
    14  O    4.981323   4.797316   3.617172   2.313327   2.751706
                    6          7          8          9         10
     6  C    0.000000
     7  H    2.147408   0.000000
     8  N    4.291289   4.657264   0.000000
     9  N    5.333415   5.439045   1.109574   0.000000
    10  H    1.091745   2.469305   5.382992   6.421537   0.000000
    11  H    2.186644   4.325411   4.710456   5.816432   2.505289
    12  N    3.757603   5.362474   2.963353   3.910750   4.626941
    13  O    4.716233   6.024320   2.511036   3.200849   5.676911
    14  O    4.156618   6.046233   4.187803   5.125170   4.812944
                   11         12         13         14
    11  H    0.000000
    12  N    2.674238   0.000000
    13  O    3.897562   1.235897   0.000000
    14  O    2.436474   1.224653   2.176304   0.000000
 Symmetry turned off by external request.
 Stoichiometry    C6H3N3O2
 Framework group  C1[X(C6H3N3O2)]
 Deg. of freedom    36
 Full point group                 C1      NOp   1
 Rotational constants (GHZ):      1.4728700      1.2493655      0.6759713
 Standard basis: Aug-CC-pVDZ (5D, 7F)
 Integral buffers will be    131072 words long.
 Raffenetti 2 integral format.
 Two-electron integral symmetry is turned off.
   280 basis functions,   506 primitive gaussians,   302 cartesian basis functions
    38 alpha electrons       38 beta electrons
       nuclear repulsion energy       545.7273615381 Hartrees.
 NAtoms=   14 NActive=   14 NUniq=   14 SFac= 1.00D+00 NAtFMM=   50 NAOKFM=F Big=F
 One-electron integrals computed using PRISM.
 NBasis=   280 RedAO= T  NBF=   280
 NBsUse=   280 1.00D-06 NBFU=   280
 Harris functional with IExCor=  402 diagonalized for initial guess.
 ExpMin= 2.97D-02 ExpMax= 1.17D+04 ExpMxC= 4.01D+02 IAcc=3 IRadAn=         0 AccDes= 0.00D+00
 HarFok:  IExCor=  402 AccDes= 0.00D+00 IRadAn=         0 IDoV= 1
 ScaDFX=  1.000000  1.000000  1.000000  1.000000
 FoFCou: FMM=F IPFlag=           0 FMFlag=      100000 FMFlg1=           0
         NFxFlg=           0 DoJE=T BraDBF=F KetDBF=T FulRan=T
         Omega=  0.000000  0.000000  1.000000  0.000000  0.000000 ICntrl=     500 IOpCl=  0
         NMat0=    1 NMatS0=    1 NMatT0=    0 NMatD0=    1 NMtDS0=    0 NMtDT0=    0
         I1Cent=           4 NGrid=           0.
 Symmetry not used in FoFCou.
 Requested convergence on RMS density matrix=1.00D-08 within 128 cycles.
 Requested convergence on MAX density matrix=1.00D-06.
 Requested convergence on             energy=1.00D-06.
 No special actions if energy rises.
 EnCoef did     2 forward-backward iterations
 EnCoef did     2 forward-backward iterations
 SCF Done:  E(RB3LYP) =  -544.971429311     A.U. after   19 cycles
             Convg  =    0.3861D-08             -V/T =  2.0061
 QCSCF skips out because SCF is already converged.
 Range of M.O.s used for correlation:     1   280
 NBasis=   280 NAE=    38 NBE=    38 NFC=     0 NFV=     0
 NROrb=    280 NOA=    38 NOB=    38 NVA=   242 NVB=   242

 **** Warning!!: The largest alpha MO coefficient is  0.11090678D+03

 Symmetrizing basis deriv contribution to polar:
 IMax=3 JMax=2 DiffMx= 0.00D+00
 G2DrvN: will do    15 centers at a time, making    1 passes doing MaxLOS=2.
 Calling FoFCou, ICntrl=  3107 FMM=F I1Cent=   0 AccDes= 0.00D+00.
 FoFDir/FoFCou used for L=0 through L=2.
 End of G2Drv Frequency-dependent properties file   721 does not exist.
 End of G2Drv Frequency-dependent properties file   722 does not exist.
          IDoAtm=11111111111111
          Differentiating once with respect to nuclear coordinates.
          There are    45 degrees of freedom in the 1st order CPHF.  IDoFFX=5.
     39 vectors produced by pass  0 Test12= 2.04D-10 2.22D-07 XBig12= 7.80D-01 2.47D-01.
 AX will form    39 AO Fock derivatives at one time.
     39 vectors produced by pass  1 Test12= 2.04D-10 2.22D-07 XBig12= 2.93D-01 2.03D-01.
     39 vectors produced by pass  2 Test12= 2.04D-10 2.22D-07 XBig12= 5.88D-03 1.69D-02.
     39 vectors produced by pass  3 Test12= 2.04D-10 2.22D-07 XBig12= 4.08D-05 1.27D-03.
     39 vectors produced by pass  4 Test12= 2.04D-10 2.22D-07 XBig12= 1.67D-07 7.81D-05.
     20 vectors produced by pass  5 Test12= 2.04D-10 2.22D-07 XBig12= 3.82D-10 2.95D-06.
      1 vectors produced by pass  6 Test12= 2.04D-10 2.22D-07 XBig12= 1.74D-12 2.50D-07.
 Inverted reduced A of dimension   216 with in-core refinement.
 End of Minotr Frequency-dependent properties file   721 does not exist.
 End of Minotr Frequency-dependent properties file   722 does not exist.

 **********************************************************************

            Population analysis using the SCF density.

 **********************************************************************

 Alpha  occ. eigenvalues --  -19.21062 -19.21016 -14.59923 -14.52600 -14.49978
 Alpha  occ. eigenvalues --  -10.29083 -10.28606 -10.23887 -10.22999 -10.22849
 Alpha  occ. eigenvalues --  -10.18508  -1.26005  -1.18938  -1.08698  -0.92003
 Alpha  occ. eigenvalues --   -0.82659  -0.81209  -0.73198  -0.69093  -0.62942
 Alpha  occ. eigenvalues --   -0.60797  -0.57158  -0.56528  -0.54280  -0.53434
 Alpha  occ. eigenvalues --   -0.53175  -0.51987  -0.49027  -0.47703  -0.42583
 Alpha  occ. eigenvalues --   -0.41098  -0.39928  -0.34574  -0.34514  -0.32650
 Alpha  occ. eigenvalues --   -0.30355  -0.29020  -0.23133
 Alpha virt. eigenvalues --   -0.13126  -0.10610  -0.09339  -0.02459  -0.02181
 Alpha virt. eigenvalues --   -0.01629   0.00409   0.00869   0.01326   0.03266
 Alpha virt. eigenvalues --    0.04069   0.04556   0.05565   0.06361   0.07168
 Alpha virt. eigenvalues --    0.07709   0.07936   0.08511   0.08849   0.09335
 Alpha virt. eigenvalues --    0.10342   0.10953   0.11042   0.11784   0.12031
 Alpha virt. eigenvalues --    0.12296   0.12353   0.13652   0.13845   0.14805
 Alpha virt. eigenvalues --    0.15211   0.16569   0.17155   0.18092   0.18175
 Alpha virt. eigenvalues --    0.18394   0.18902   0.19906   0.20154   0.21263
 Alpha virt. eigenvalues --    0.21720   0.21809   0.22518   0.23204   0.23732
 Alpha virt. eigenvalues --    0.24936   0.25425   0.26062   0.26599   0.26872
 Alpha virt. eigenvalues --    0.27177   0.28349   0.28579   0.29001   0.29195
 Alpha virt. eigenvalues --    0.29688   0.30460   0.30922   0.32152   0.33032
 Alpha virt. eigenvalues --    0.33733   0.35031   0.35153   0.36750   0.37874
 Alpha virt. eigenvalues --    0.38565   0.39118   0.41278   0.41612   0.42205
 Alpha virt. eigenvalues --    0.43775   0.43927   0.45774   0.47241   0.48923
 Alpha virt. eigenvalues --    0.49139   0.50514   0.50771   0.51072   0.51721
 Alpha virt. eigenvalues --    0.52941   0.53064   0.54566   0.55924   0.56538
 Alpha virt. eigenvalues --    0.56874   0.58370   0.58744   0.59063   0.59877
 Alpha virt. eigenvalues --    0.61430   0.61660   0.63434   0.64202   0.64956
 Alpha virt. eigenvalues --    0.66500   0.68136   0.68889   0.69979   0.70129
 Alpha virt. eigenvalues --    0.70659   0.70859   0.71894   0.73018   0.73129
 Alpha virt. eigenvalues --    0.74804   0.74911   0.75498   0.76580   0.77197
 Alpha virt. eigenvalues --    0.77232   0.77754   0.79051   0.81964   0.83756
 Alpha virt. eigenvalues --    0.84090   0.84580   0.87114   0.87707   0.88722
 Alpha virt. eigenvalues --    0.89717   0.91146   0.96105   0.97221   0.97644
 Alpha virt. eigenvalues --    1.00107   1.00799   1.01946   1.03577   1.03699
 Alpha virt. eigenvalues --    1.06334   1.07338   1.09238   1.09899   1.14227
 Alpha virt. eigenvalues --    1.15710   1.16621   1.18026   1.20222   1.20795
 Alpha virt. eigenvalues --    1.21196   1.22986   1.24279   1.25404   1.25644
 Alpha virt. eigenvalues --    1.28725   1.29074   1.29867   1.32543   1.33038
 Alpha virt. eigenvalues --    1.34566   1.35144   1.37542   1.38677   1.39418
 Alpha virt. eigenvalues --    1.40303   1.40776   1.42169   1.42954   1.43488
 Alpha virt. eigenvalues --    1.48098   1.49416   1.52831   1.53466   1.55754
 Alpha virt. eigenvalues --    1.57080   1.59119   1.60057   1.61309   1.61967
 Alpha virt. eigenvalues --    1.63223   1.64742   1.66504   1.70221   1.71468
 Alpha virt. eigenvalues --    1.73108   1.73802   1.77131   1.79703   1.80005
 Alpha virt. eigenvalues --    1.85859   1.87394   1.87814   1.90016   1.91848
 Alpha virt. eigenvalues --    1.92417   1.92841   1.96045   1.98854   2.00704
 Alpha virt. eigenvalues --    2.03109   2.03739   2.05224   2.05840   2.07633
 Alpha virt. eigenvalues --    2.08325   2.10157   2.14524   2.18982   2.19084
 Alpha virt. eigenvalues --    2.21176   2.26906   2.29577   2.30101   2.30941
 Alpha virt. eigenvalues --    2.32594   2.34798   2.37429   2.38735   2.42617
 Alpha virt. eigenvalues --    2.46292   2.48053   2.54889   2.56258   2.62244
 Alpha virt. eigenvalues --    2.66549   2.73758   2.74778   2.79810   2.82799
 Alpha virt. eigenvalues --    2.85586   2.87863   2.88483   3.04991   3.08176
 Alpha virt. eigenvalues --    3.11439   3.17480   3.25284   3.26740   3.29180
 Alpha virt. eigenvalues --    3.29481   3.35181   3.37499   3.43965   3.45070
 Alpha virt. eigenvalues --    3.56162   3.58224   3.58400   3.77798   3.79671
 Alpha virt. eigenvalues --    3.81941   4.16319
          Condensed to atoms (all electrons):
              1          2          3          4          5          6
     1  C    8.284458   0.161580  -0.433428  -1.099648   0.635895  -1.937082
     2  C    0.161580  10.646011  -0.503044  -1.100618  -1.865917   0.499264
     3  C   -0.433428  -0.503044  11.683271  -3.054239  -1.522278  -1.230695
     4  C   -1.099648  -1.100618  -3.054239  12.791887  -2.452324   0.155630
     5  C    0.635895  -1.865917  -1.522278  -2.452324  13.222390  -2.355518
     6  C   -1.937082   0.499264  -1.230695   0.155630  -2.355518  11.107861
     7  H   -0.932288  -0.215315   0.135924  -0.029621  -0.066532   0.498251
     8  N    0.101774  -0.324045   0.251795  -0.027727   0.010298  -0.075301
     9  N    0.070187   0.393682  -0.451907  -0.317997  -0.060135  -0.012071
    10  H    0.564433  -0.179765   0.031426  -0.154626   0.780343  -1.652937
    11  H   -0.104572   0.118679  -0.279158   0.849196  -1.816097   0.721743
    12  N    0.121548  -0.183193   0.035204  -0.599649   0.315625  -0.221780
    13  O   -0.011813   0.003527  -0.028303   0.164999  -0.025199  -0.013921
    14  O   -0.019374  -0.003400  -0.041024   0.123030   0.042663  -0.036563
              7          8          9         10         11         12
     1  C   -0.932288   0.101774   0.070187   0.564433  -0.104572   0.121548
     2  C   -0.215315  -0.324045   0.393682  -0.179765   0.118679  -0.183193
     3  C    0.135924   0.251795  -0.451907   0.031426  -0.279158   0.035204
     4  C   -0.029621  -0.027727  -0.317997  -0.154626   0.849196  -0.599649
     5  C   -0.066532   0.010298  -0.060135   0.780343  -1.816097   0.315625
     6  C    0.498251  -0.075301  -0.012071  -1.652937   0.721743  -0.221780
     7  H    2.476563  -0.013778   0.004275  -0.196672  -0.005952  -0.000649
     8  N   -0.013778   8.142108  -1.525657   0.006044  -0.009282  -0.002695
     9  N    0.004275  -1.525657   9.658209   0.000114  -0.000971  -0.010480
    10  H   -0.196672   0.006044   0.000114   2.716907  -0.193490   0.002816
    11  H   -0.005952  -0.009282  -0.000971  -0.193490   2.676017  -0.149551
    12  N   -0.000649  -0.002695  -0.010480   0.002816  -0.149551   7.888578
    13  O   -0.000409  -0.022749  -0.017900  -0.000079  -0.011112  -0.500057
    14  O   -0.000280  -0.007068  -0.004591   0.000506  -0.014162  -0.442309
             13         14
     1  C   -0.011813  -0.019374
     2  C    0.003527  -0.003400
     3  C   -0.028303  -0.041024
     4  C    0.164999   0.123030
     5  C   -0.025199   0.042663
     6  C   -0.013921  -0.036563
     7  H   -0.000409  -0.000280
     8  N   -0.022749  -0.007068
     9  N   -0.017900  -0.004591
    10  H   -0.000079   0.000506
    11  H   -0.011112  -0.014162
    12  N   -0.500057  -0.442309
    13  O    9.201031  -0.042345
    14  O   -0.042345   9.126485
 Mulliken atomic charges:
              1
     1  C    0.598330
     2  C   -1.447446
     3  C    1.406455
     4  C    0.751707
     5  C    1.156786
     6  C    0.553118
     7  H   -0.653517
     8  N    0.496282
     9  N   -0.724759
    10  H   -0.725019
    11  H   -0.781289
    12  N    0.746592
    13  O   -0.695669
    14  O   -0.681568
 Sum of Mulliken atomic charges =   0.00000
 Mulliken charges with hydrogens summed into heavy atoms:
              1
     1  C   -0.055187
     2  C   -1.447446
     3  C    1.406455
     4  C    0.751707
     5  C    0.375497
     6  C   -0.171902
     8  N    0.496282
     9  N   -0.724759
    12  N    0.746592
    13  O   -0.695669
    14  O   -0.681568
 Sum of Mulliken charges with hydrogens summed into heavy atoms =   0.00000
 APT atomic charges:
              1
     1  C    0.830022
     2  C    0.261979
     3  C   -0.571989
     4  C    0.135768
     5  C    0.192341
     6  C    0.346380
     7  H   -0.104833
     8  N   -1.184821
     9  N    0.802234
    10  H   -0.158226
    11  H   -0.149897
    12  N    0.686650
    13  O   -0.608452
    14  O   -0.477154
 Sum of APT charges=   0.00000
 APT Atomic charges with hydrogens summed into heavy atoms:
              1
     1  C    0.725189
     2  C    0.261979
     3  C   -0.571989
     4  C    0.135768
     5  C    0.042444
     6  C    0.188154
     7  H    0.000000
     8  N   -1.184821
     9  N    0.802234
    10  H    0.000000
    11  H    0.000000
    12  N    0.686650
    13  O   -0.608452
    14  O   -0.477154
 Sum of APT charges=   0.00000
 Electronic spatial extent (au):  <R**2>=           1538.2670
 Charge=              0.0000 electrons
 Dipole moment (field-independent basis, Debye):
    X=              1.7055    Y=             -0.1455    Z=              0.0000  Tot=              1.7117
 Quadrupole moment (field-independent basis, Debye-Ang):
   XX=            -63.2172   YY=            -65.8635   ZZ=            -61.6889
   XY=            -10.4672   XZ=              0.0000   YZ=              0.0000
 Traceless Quadrupole moment (field-independent basis, Debye-Ang):
   XX=              0.3727   YY=             -2.2736   ZZ=              1.9009
   XY=            -10.4672   XZ=              0.0000   YZ=              0.0000
 Octapole moment (field-independent basis, Debye-Ang**2):
  XXX=             12.1748  YYY=            -12.8127  ZZZ=             -0.0002  XYY=             -6.5831
  XXY=             -3.5206  XXZ=             -0.0001  XZZ=            -14.6841  YZZ=             -2.4169
  YYZ=              0.0000  XYZ=              0.0000
 Hexadecapole moment (field-independent basis, Debye-Ang**3):
 XXXX=          -1039.4905 YYYY=           -928.5257 ZZZZ=            -64.4363 XXXY=            -30.2864
 XXXZ=              0.0006 YYYX=            -60.1339 YYYZ=              0.0000 ZZZX=              0.0004
 ZZZY=              0.0000 XXYY=           -344.1696 XXZZ=           -198.3418 YYZZ=           -156.7440
 XXYZ=              0.0001 YYXZ=              0.0001 ZZXY=             -0.5680
 N-N= 5.457273615381D+02 E-N=-2.362492035369D+03  KE= 5.416922465307D+02
  Exact polarizability:   0.000   0.000   0.000   0.000   0.000   0.000
 Approx polarizability: 280.311 -14.666 239.620   0.000   0.000  88.406
 Calling FoFJK, ICntrl=    100147 FMM=F ISym2X=0 I1Cent= 0 IOpClX= 0 NMat=1 NMatS=1 NMatT=0.
 -------------------------------------------------------------------
 Center     Atomic                   Forces (Hartrees/Bohr)
 Number     Number              X              Y              Z
 -------------------------------------------------------------------
      1        6           0.000003365    0.000005632    0.000000000
      2        6          -0.000000529   -0.000005904    0.000000008
      3        6           0.000004720    0.000009302   -0.000000016
      4        6           0.000000724   -0.000008735   -0.000000371
      5        6          -0.000000645    0.000001944   -0.000000063
      6        6          -0.000001855   -0.000006187    0.000000042
      7        1          -0.000001745    0.000000363   -0.000000013
      8        7           0.000001433   -0.000004246    0.000000012
      9        7          -0.000005148    0.000005735   -0.000000003
     10        1          -0.000000702    0.000001634    0.000000007
     11        1           0.000000470    0.000001981   -0.000000009
     12        7           0.000001556    0.000003218    0.000001409
     13        8          -0.000001627   -0.000002692   -0.000000513
     14        8          -0.000000017   -0.000002045   -0.000000490
 -------------------------------------------------------------------
 Cartesian Forces:  Max     0.000009302 RMS     0.000003197
 IRC-IRC-IRC-IRC-IRC-IRC-IRC-IRC-IRC-IRC-IRC-IRC-IRC-IRC-IRC-IRC-IRC-IRC
          ******** Start new reaction path calculation ********
 Supplied step size of   0.0100 bohr.
    Integration on MW PES will use step size of   0.0357 sqrt(amu)*bohr.
 Point Number:   0          Path Number:   1
 Calculating another point on the path.
 IRC-IRC-IRC-IRC-IRC-IRC-IRC-IRC-IRC-IRC-IRC-IRC-IRC-IRC-IRC-IRC-IRC-IRC
                          Input orientation:                          
 ---------------------------------------------------------------------
 Center     Atomic      Atomic             Coordinates (Angstroms)
 Number     Number       Type             X           Y           Z
 ---------------------------------------------------------------------
      1          6           0        2.654213    0.553834   -0.000001
      2          6           0        1.537901    1.435808   -0.000001
      3          6           0        0.380715    0.787812   -0.000001
      4          6           0        0.085476   -0.581111   -0.000001
      5          6           0        1.202324   -1.413757   -0.000001
      6          6           0        2.484813   -0.835309   -0.000001
      7          1           0        3.671402    0.954904   -0.000001
      8          7           0       -0.914888    1.789403   -0.000001
      9          7           0       -1.464231    2.753216   -0.000001
     10          1           0        3.355252   -1.494254   -0.000001
     11          1           0        1.057158   -2.491418   -0.000001
     12          7           0       -1.259531   -1.154435   -0.000001
     13          8           0       -2.208065   -0.362256    0.000009
     14          8           0       -1.376830   -2.373478   -0.000001
 ---------------------------------------------------------------------
                    Distance matrix (angstroms):
                    1          2          3          4          5
     1  C    0.000000
     2  C    1.422684   0.000000
     3  C    2.285506   1.326265   0.000000
     4  C    2.808293   2.485458   1.400398   0.000000
     5  C    2.445280   2.869256   2.349882   1.393072   0.000000
     6  C    1.399434   2.460613   2.657395   2.412765   1.406904
     7  H    1.093403   2.187028   3.294926   3.901052   3.421535
     8  N    3.776919   2.478146   1.637612   2.572949   3.839638
     9  N    4.668925   3.278470   2.695671   3.676864   4.947139
    10  H    2.164745   3.447902   3.749092   3.394888   2.154432
    11  H    3.438625   3.956541   3.348271   2.143231   1.087394
    12  N    4.270313   3.812477   2.542190   1.462102   2.475475
    13  O    4.947825   4.155153   2.832744   2.303959   3.568811
    14  O    4.981814   4.796490   3.617004   2.313206   2.751927
                    6          7          8          9         10
     6  C    0.000000
     7  H    2.147756   0.000000
     8  N    4.295007   4.661593   0.000000
     9  N    5.335960   5.441383   1.109375   0.000000
    10  H    1.091729   2.469479   5.386697   6.424050   0.000000
    11  H    2.186525   4.325668   4.713215   5.819243   2.505109
    12  N    3.757919   5.363153   2.963943   3.913009   4.627277
    13  O    4.716661   6.025201   2.510367   3.203039   5.677316
    14  O    4.156712   6.046716   4.188433   5.127440   4.813069
                   11         12         13         14
    11  H    0.000000
    12  N    2.674803   0.000000
    13  O    3.898078   1.235825   0.000000
    14  O    2.436844   1.224674   2.176227   0.000000
 Symmetry turned off by external request.
 Stoichiometry    C6H3N3O2
 Framework group  C1[X(C6H3N3O2)]
 Deg. of freedom    36
 Full point group                 C1      NOp   1
 Rotational constants (GHZ):      1.4720049      1.2486816      0.6755888
 Standard basis: Aug-CC-pVDZ (5D, 7F)
 Integral buffers will be    131072 words long.
 Raffenetti 2 integral format.
 Two-electron integral symmetry is turned off.
   280 basis functions,   506 primitive gaussians,   302 cartesian basis functions
    38 alpha electrons       38 beta electrons
       nuclear repulsion energy       545.6306810854 Hartrees.
 NAtoms=   14 NActive=   14 NUniq=   14 SFac= 1.00D+00 NAtFMM=   50 NAOKFM=F Big=F
 One-electron integrals computed using PRISM.
 NBasis=   280 RedAO= T  NBF=   280
 NBsUse=   280 1.00D-06 NBFU=   280
 Initial guess read from the read-write file.
 B after Tr=     0.000000    0.000000    0.000000
         Rot=    1.000000    0.000000    0.000000    0.000000 Ang=   0.00 deg.
 Harris functional with IExCor=  402 diagonalized for initial guess.
 ExpMin= 2.97D-02 ExpMax= 1.17D+04 ExpMxC= 4.01D+02 IAcc=3 IRadAn=         0 AccDes= 0.00D+00
 HarFok:  IExCor=  402 AccDes= 0.00D+00 IRadAn=         0 IDoV= 1
 ScaDFX=  1.000000  1.000000  1.000000  1.000000
 FoFCou: FMM=F IPFlag=           0 FMFlag=      100000 FMFlg1=           0
         NFxFlg=           0 DoJE=T BraDBF=F KetDBF=T FulRan=T
         Omega=  0.000000  0.000000  1.000000  0.000000  0.000000 ICntrl=     500 IOpCl=  0
         NMat0=    1 NMatS0=    1 NMatT0=    0 NMatD0=    1 NMtDS0=    0 NMtDT0=    0
         I1Cent=           4 NGrid=           0.
 Symmetry not used in FoFCou.
 Requested convergence on RMS density matrix=1.00D-08 within 128 cycles.
 Requested convergence on MAX density matrix=1.00D-06.
 Requested convergence on             energy=1.00D-06.
 No special actions if energy rises.
 SCF Done:  E(RB3LYP) =  -544.971433089     A.U. after   12 cycles
             Convg  =    0.8063D-08             -V/T =  2.0060
 QCSCF skips out because SCF is already converged.
 Range of M.O.s used for correlation:     1   280
 NBasis=   280 NAE=    38 NBE=    38 NFC=     0 NFV=     0
 NROrb=    280 NOA=    38 NOB=    38 NVA=   242 NVB=   242

 **** Warning!!: The largest alpha MO coefficient is  0.11125635D+03

 Symmetrizing basis deriv contribution to polar:
 IMax=3 JMax=2 DiffMx= 0.00D+00
 Calling FoFJK, ICntrl=      2147 FMM=F ISym2X=0 I1Cent= 0 IOpClX= 0 NMat=1 NMatS=1 NMatT=0.
 -------------------------------------------------------------------
 Center     Atomic                   Forces (Hartrees/Bohr)
 Number     Number              X              Y              Z
 -------------------------------------------------------------------
      1        6           0.000117201    0.000007817    0.000000000
      2        6           0.000085661   -0.000154269    0.000000008
      3        6           0.000252662   -0.000163233   -0.000000016
      4        6           0.000019627   -0.000034526   -0.000000371
      5        6           0.000068600   -0.000052490   -0.000000063
      6        6           0.000112975   -0.000055445    0.000000042
      7        1           0.000009350   -0.000001284   -0.000000013
      8        7          -0.000526915    0.000164555    0.000000011
      9        7          -0.000158637    0.000373197   -0.000000003
     10        1           0.000022777   -0.000012740    0.000000007
     11        1           0.000016196   -0.000018983   -0.000000009
     12        7          -0.000005783    0.000011517    0.000001409
     13        8          -0.000011947   -0.000064380   -0.000000513
     14        8          -0.000001767    0.000000265   -0.000000490
 -------------------------------------------------------------------
 Cartesian Forces:  Max     0.000526915 RMS     0.000122989
 IRC-IRC-IRC-IRC-IRC-IRC-IRC-IRC-IRC-IRC-IRC-IRC-IRC-IRC-IRC-IRC-IRC-IRC
 Pt  1 Step number   1 out of a maximum of1000
 CORRECTOR INTEGRATION CONVERGENCE:
   Recorrection delta-x convergence threshold:    0.010000
   Delta-x Convergence Met
 Point Number:   1          Path Number:   1
   CHANGE IN THE REACTION COORDINATE =    0.03567
   NET REACTION COORDINATE UP TO THIS POINT =    0.03567
  # OF POINTS ALONG THE PATH =   1
  # OF STEPS =   1

 Calculating another point on the path.
 IRC-IRC-IRC-IRC-IRC-IRC-IRC-IRC-IRC-IRC-IRC-IRC-IRC-IRC-IRC-IRC-IRC-IRC
                          Input orientation:                          
 ---------------------------------------------------------------------
 Center     Atomic      Atomic             Coordinates (Angstroms)
 Number     Number       Type             X           Y           Z
 ---------------------------------------------------------------------
      1          6           0        2.655127    0.553741   -0.000001
      2          6           0        1.538332    1.434629   -0.000001
      3          6           0        0.382712    0.786589   -0.000001
      4          6           0        0.085733   -0.581373   -0.000001
      5          6           0        1.202953   -1.414063   -0.000001
      6          6           0        2.485434   -0.835616   -0.000001
      7          1           0        3.672278    0.954853    0.000000
      8          7           0       -0.918160    1.790478   -0.000001
      9          7           0       -1.465179    2.755407   -0.000001
     10          1           0        3.355941   -1.494533   -0.000001
     11          1           0        1.058009   -2.491806   -0.000001
     12          7           0       -1.259543   -1.154447    0.000002
     13          8           0       -2.208151   -0.362506    0.000008
     14          8           0       -1.376821   -2.373508   -0.000002
 ---------------------------------------------------------------------
                    Distance matrix (angstroms):
                    1          2          3          4          5
     1  C    0.000000
     2  C    1.422390   0.000000
     3  C    2.284314   1.324920   0.000000
     4  C    2.808962   2.484816   1.399827   0.000000
     5  C    2.445621   2.868366   2.348546   1.393397   0.000000
     6  C    1.399682   2.459881   2.655747   2.413132   1.406896
     7  H    1.093384   2.187215   3.293867   3.901705   3.421890
     8  N    3.781256   2.482133   1.643186   2.575554   3.842942
     9  N    4.671644   3.281088   2.700175   3.679597   4.950093
    10  H    2.164848   3.447273   3.747480   3.395309   2.154491
    11  H    3.438916   3.955705   3.347223   2.143613   1.087446
    12  N    4.271129   3.812010   2.542562   1.462252   2.476144
    13  O    4.948837   4.155217   2.834253   2.304302   3.569511
    14  O    4.982508   4.795834   3.616928   2.313182   2.752412
                    6          7          8          9         10
     6  C    0.000000
     7  H    2.148111   0.000000
     8  N    4.298933   4.665876   0.000000
     9  N    5.338801   5.443847   1.109197   0.000000
    10  H    1.091766   2.469729   5.390662   6.426911   0.000000
    11  H    2.186437   4.325952   4.716270   5.822347   2.505004
    12  N    3.758524   5.363954   2.964646   3.915259   4.627996
    13  O    4.717370   6.026183   2.509864   3.205213   5.678081
    14  O    4.157177   6.047428   4.189170   5.129676   4.813692
                   11         12         13         14
    11  H    0.000000
    12  N    2.675738   0.000000
    13  O    3.898939   1.235730   0.000000
    14  O    2.437702   1.224689   2.176060   0.000000
 Symmetry turned off by external request.
 Stoichiometry    C6H3N3O2
 Framework group  C1[X(C6H3N3O2)]
 Deg. of freedom    36
 Full point group                 C1      NOp   1
 Rotational constants (GHZ):      1.4711031      1.2478614      0.6751588
 Standard basis: Aug-CC-pVDZ (5D, 7F)
 Integral buffers will be    131072 words long.
 Raffenetti 2 integral format.
 Two-electron integral symmetry is turned off.
   280 basis functions,   506 primitive gaussians,   302 cartesian basis functions
    38 alpha electrons       38 beta electrons
       nuclear repulsion energy       545.5169793833 Hartrees.
 NAtoms=   14 NActive=   14 NUniq=   14 SFac= 1.00D+00 NAtFMM=   50 NAOKFM=F Big=F
 One-electron integrals computed using PRISM.
 NBasis=   280 RedAO= T  NBF=   280
 NBsUse=   280 1.00D-06 NBFU=   280
 Initial guess read from the read-write file.
 B after Tr=     0.000000    0.000000    0.000000
         Rot=    1.000000    0.000000    0.000000    0.000000 Ang=   0.00 deg.
 Harris functional with IExCor=  402 diagonalized for initial guess.
 ExpMin= 2.97D-02 ExpMax= 1.17D+04 ExpMxC= 4.01D+02 IAcc=3 IRadAn=         0 AccDes= 0.00D+00
 HarFok:  IExCor=  402 AccDes= 0.00D+00 IRadAn=         0 IDoV= 1
 ScaDFX=  1.000000  1.000000  1.000000  1.000000
 FoFCou: FMM=F IPFlag=           0 FMFlag=      100000 FMFlg1=           0
         NFxFlg=           0 DoJE=T BraDBF=F KetDBF=T FulRan=T
         Omega=  0.000000  0.000000  1.000000  0.000000  0.000000 ICntrl=     500 IOpCl=  0
         NMat0=    1 NMatS0=    1 NMatT0=    0 NMatD0=    1 NMtDS0=    0 NMtDT0=    0
         I1Cent=           4 NGrid=           0.
 Symmetry not used in FoFCou.
 Requested convergence on RMS density matrix=1.00D-08 within 128 cycles.
 Requested convergence on MAX density matrix=1.00D-06.
 Requested convergence on             energy=1.00D-06.
 No special actions if energy rises.
 SCF Done:  E(RB3LYP) =  -544.971444255     A.U. after   12 cycles
             Convg  =    0.7579D-08             -V/T =  2.0060
 QCSCF skips out because SCF is already converged.
 Range of M.O.s used for correlation:     1   280
 NBasis=   280 NAE=    38 NBE=    38 NFC=     0 NFV=     0
 NROrb=    280 NOA=    38 NOB=    38 NVA=   242 NVB=   242

 **** Warning!!: The largest alpha MO coefficient is  0.11155587D+03

 Symmetrizing basis deriv contribution to polar:
 IMax=3 JMax=2 DiffMx= 0.00D+00
 Calling FoFJK, ICntrl=      2147 FMM=F ISym2X=0 I1Cent= 0 IOpClX= 0 NMat=1 NMatS=1 NMatT=0.
 -------------------------------------------------------------------
 Center     Atomic                   Forces (Hartrees/Bohr)
 Number     Number              X              Y              Z
 -------------------------------------------------------------------
      1        6           0.000255630   -0.000055948    0.000000005
      2        6           0.000105080   -0.000340535   -0.000000018
      3        6           0.000559231   -0.000351041    0.000000027
      4        6           0.000081905   -0.000077300    0.000000058
      5        6           0.000149109   -0.000055664    0.000000001
      6        6           0.000078417   -0.000065276   -0.000000028
      7        1           0.000018670   -0.000002966    0.000000002
      8        7          -0.001059447    0.000351512   -0.000000026
      9        7          -0.000240860    0.000660821    0.000000009
     10        1          -0.000007903    0.000005260   -0.000000005
     11        1           0.000005511    0.000010866   -0.000000001
     12        7           0.000010749   -0.000004637    0.000000037
     13        8          -0.000016379   -0.000055986   -0.000000038
     14        8           0.000060287   -0.000019104   -0.000000023
 -------------------------------------------------------------------
 Cartesian Forces:  Max     0.001059447 RMS     0.000240471
 IRC-IRC-IRC-IRC-IRC-IRC-IRC-IRC-IRC-IRC-IRC-IRC-IRC-IRC-IRC-IRC-IRC-IRC
 Pt  2 Step number   1 out of a maximum of1000
 CORRECTOR INTEGRATION CONVERGENCE:
   Recorrection delta-x convergence threshold:    0.010000
   Delta-x Convergence Met
 Point Number:   2          Path Number:   1
   CHANGE IN THE REACTION COORDINATE =    0.03567
   NET REACTION COORDINATE UP TO THIS POINT =    0.07134
  # OF POINTS ALONG THE PATH =   2
  # OF STEPS =   1

 Calculating another point on the path.
 IRC-IRC-IRC-IRC-IRC-IRC-IRC-IRC-IRC-IRC-IRC-IRC-IRC-IRC-IRC-IRC-IRC-IRC
                          Input orientation:                          
 ---------------------------------------------------------------------
 Center     Atomic      Atomic             Coordinates (Angstroms)
 Number     Number       Type             X           Y           Z
 ---------------------------------------------------------------------
      1          6           0        2.656025    0.553585   -0.000001
      2          6           0        1.538743    1.433379   -0.000001
      3          6           0        0.384775    0.785306   -0.000001
      4          6           0        0.085958   -0.581602   -0.000001
      5          6           0        1.203434   -1.414282   -0.000001
      6          6           0        2.485764   -0.835871   -0.000001
      7          1           0        3.673162    0.954658    0.000000
      8          7           0       -0.921487    1.791492   -0.000001
      9          7           0       -1.465982    2.757608   -0.000001
     10          1           0        3.356207   -1.494801   -0.000001
     11          1           0        1.058467   -2.492007   -0.000001
     12          7           0       -1.259501   -1.154447    0.000002
     13          8           0       -2.208176   -0.362692    0.000008
     14          8           0       -1.376626   -2.373548   -0.000002
 ---------------------------------------------------------------------
                    Distance matrix (angstroms):
                    1          2          3          4          5
     1  C    0.000000
     2  C    1.422095   0.000000
     3  C    2.283039   1.323496   0.000000
     4  C    2.809607   2.484096   1.399188   0.000000
     5  C    2.445919   2.867334   2.346996   1.393596   0.000000
     6  C    1.399848   2.458931   2.653746   2.413239   1.406745
     7  H    1.093356   2.187445   3.292745   3.902323   3.422197
     8  N    3.785631   2.486157   1.648857   2.578084   3.846072
     9  N    4.674255   3.283589   2.704677   3.682233   4.952822
    10  H    2.164749   3.446362   3.745436   3.395359   2.154279
    11  H    3.439160   3.954658   3.345839   2.143694   1.087431
    12  N    4.271852   3.811432   2.542889   1.462331   2.476603
    13  O    4.949749   4.155151   2.835718   2.304555   3.570003
    14  O    4.983009   4.795005   3.616752   2.313056   2.752617
                    6          7          8          9         10
     6  C    0.000000
     7  H    2.148465   0.000000
     8  N    4.302603   4.670234   0.000000
     9  N    5.341291   5.446231   1.108989   0.000000
    10  H    1.091723   2.469880   5.394292   6.429346   0.000000
    11  H    2.186313   4.326214   4.718959   5.825058   2.504802
    12  N    3.758791   5.364652   2.965267   3.917501   4.628240
    13  O    4.717730   6.027068   2.509199   3.207355   5.678383
    14  O    4.157225   6.047918   4.189834   5.131935   4.813721
                   11         12         13         14
    11  H    0.000000
    12  N    2.676200   0.000000
    13  O    3.899351   1.235662   0.000000
    14  O    2.437973   1.224715   2.176009   0.000000
 Symmetry turned off by external request.
 Stoichiometry    C6H3N3O2
 Framework group  C1[X(C6H3N3O2)]
 Deg. of freedom    36
 Full point group                 C1      NOp   1
 Rotational constants (GHZ):      1.4702627      1.2471759      0.6747811
 Standard basis: Aug-CC-pVDZ (5D, 7F)
 Integral buffers will be    131072 words long.
 Raffenetti 2 integral format.
 Two-electron integral symmetry is turned off.
   280 basis functions,   506 primitive gaussians,   302 cartesian basis functions
    38 alpha electrons       38 beta electrons
       nuclear repulsion energy       545.4236476638 Hartrees.
 NAtoms=   14 NActive=   14 NUniq=   14 SFac= 1.00D+00 NAtFMM=   50 NAOKFM=F Big=F
 One-electron integrals computed using PRISM.
 NBasis=   280 RedAO= T  NBF=   280
 NBsUse=   280 1.00D-06 NBFU=   280
 Initial guess read from the read-write file.
 B after Tr=     0.000000    0.000000    0.000000
         Rot=    1.000000    0.000000    0.000000    0.000000 Ang=   0.00 deg.
 Harris functional with IExCor=  402 diagonalized for initial guess.
 ExpMin= 2.97D-02 ExpMax= 1.17D+04 ExpMxC= 4.01D+02 IAcc=3 IRadAn=         0 AccDes= 0.00D+00
 HarFok:  IExCor=  402 AccDes= 0.00D+00 IRadAn=         0 IDoV= 1
 ScaDFX=  1.000000  1.000000  1.000000  1.000000
 FoFCou: FMM=F IPFlag=           0 FMFlag=      100000 FMFlg1=           0
         NFxFlg=           0 DoJE=T BraDBF=F KetDBF=T FulRan=T
         Omega=  0.000000  0.000000  1.000000  0.000000  0.000000 ICntrl=     500 IOpCl=  0
         NMat0=    1 NMatS0=    1 NMatT0=    0 NMatD0=    1 NMtDS0=    0 NMtDT0=    0
         I1Cent=           4 NGrid=           0.
 Symmetry not used in FoFCou.
 Requested convergence on RMS density matrix=1.00D-08 within 128 cycles.
 Requested convergence on MAX density matrix=1.00D-06.
 Requested convergence on             energy=1.00D-06.
 No special actions if energy rises.
 SCF Done:  E(RB3LYP) =  -544.971462957     A.U. after   12 cycles
             Convg  =    0.7929D-08             -V/T =  2.0060
 QCSCF skips out because SCF is already converged.
 Range of M.O.s used for correlation:     1   280
 NBasis=   280 NAE=    38 NBE=    38 NFC=     0 NFV=     0
 NROrb=    280 NOA=    38 NOB=    38 NVA=   242 NVB=   242

 **** Warning!!: The largest alpha MO coefficient is  0.11190295D+03

 Symmetrizing basis deriv contribution to polar:
 IMax=3 JMax=2 DiffMx= 0.00D+00
 Calling FoFJK, ICntrl=      2147 FMM=F ISym2X=0 I1Cent= 0 IOpClX= 0 NMat=1 NMatS=1 NMatT=0.
 -------------------------------------------------------------------
 Center     Atomic                   Forces (Hartrees/Bohr)
 Number     Number              X              Y              Z
 -------------------------------------------------------------------
      1        6           0.000366609   -0.000061467    0.000000000
      2        6           0.000189091   -0.000491937   -0.000000011
      3        6           0.000804451   -0.000514989    0.000000027
      4        6           0.000092881   -0.000097995    0.000000047
      5        6           0.000200854   -0.000107023    0.000000005
      6        6           0.000160840   -0.000114696   -0.000000023
      7        1           0.000028616   -0.000006855    0.000000001
      8        7          -0.001565202    0.000501856   -0.000000025
      9        7          -0.000376575    0.001036840    0.000000008
     10        1           0.000011728   -0.000009647   -0.000000005
     11        1           0.000018141   -0.000009165    0.000000000
     12        7           0.000008303    0.000001741    0.000000019
     13        8          -0.000023879   -0.000110866   -0.000000027
     14        8           0.000084140   -0.000015797   -0.000000014
 -------------------------------------------------------------------
 Cartesian Forces:  Max     0.001565202 RMS     0.000357827
 IRC-IRC-IRC-IRC-IRC-IRC-IRC-IRC-IRC-IRC-IRC-IRC-IRC-IRC-IRC-IRC-IRC-IRC
 Pt  3 Step number   1 out of a maximum of1000
 CORRECTOR INTEGRATION CONVERGENCE:
   Recorrection delta-x convergence threshold:    0.010000
   Delta-x Convergence Met
 Point Number:   3          Path Number:   1
   CHANGE IN THE REACTION COORDINATE =    0.03568
   NET REACTION COORDINATE UP TO THIS POINT =    0.10702
  # OF POINTS ALONG THE PATH =   3
  # OF STEPS =   1

 Calculating another point on the path.
 IRC-IRC-IRC-IRC-IRC-IRC-IRC-IRC-IRC-IRC-IRC-IRC-IRC-IRC-IRC-IRC-IRC-IRC
                          Input orientation:                          
 ---------------------------------------------------------------------
 Center     Atomic      Atomic             Coordinates (Angstroms)
 Number     Number       Type             X           Y           Z
 ---------------------------------------------------------------------
      1          6           0        2.656930    0.553424   -0.000001
      2          6           0        1.539182    1.432149   -0.000001
      3          6           0        0.386796    0.784046   -0.000001
      4          6           0        0.086182   -0.581838   -0.000001
      5          6           0        1.203933   -1.414546   -0.000001
      6          6           0        2.486161   -0.836161   -0.000001
      7          1           0        3.674051    0.954460    0.000000
      8          7           0       -0.924791    1.792544   -0.000001
      9          7           0       -1.466791    2.759840   -0.000001
     10          1           0        3.356571   -1.495105   -0.000002
     11          1           0        1.059006   -2.492283   -0.000001
     12          7           0       -1.259481   -1.154448    0.000002
     13          8           0       -2.208227   -0.362902    0.000008
     14          8           0       -1.376469   -2.373582   -0.000002
 ---------------------------------------------------------------------
                    Distance matrix (angstroms):
                    1          2          3          4          5
     1  C    0.000000
     2  C    1.421800   0.000000
     3  C    2.281818   1.322131   0.000000
     4  C    2.810261   2.483416   1.398574   0.000000
     5  C    2.446243   2.866368   2.345532   1.393833   0.000000
     6  C    1.400039   2.458048   2.651868   2.413416   1.406640
     7  H    1.093327   2.187658   3.291669   3.902950   3.422524
     8  N    3.790006   2.490191   1.654488   2.580651   3.849272
     9  N    4.676894   3.286128   2.709159   3.684907   4.955630
    10  H    2.164711   3.445536   3.743540   3.395512   2.154144
    11  H    3.439432   3.953698   3.344577   2.143871   1.087437
    12  N    4.272599   3.810905   2.543224   1.462427   2.477108
    13  O    4.950697   4.155151   2.837188   2.304831   3.570545
    14  O    4.983540   4.794227   3.616590   2.312940   2.752858
                    6          7          8          9         10
     6  C    0.000000
     7  H    2.148816   0.000000
     8  N    4.306354   4.674584   0.000000
     9  N    5.343879   5.448637   1.108794   0.000000
    10  H    1.091706   2.470054   5.398027   6.431903   0.000000
    11  H    2.186209   4.326488   4.721778   5.827902   2.504629
    12  N    3.759141   5.365373   2.965936   3.919773   4.628605
    13  O    4.718183   6.027988   2.508616   3.209555   5.678808
    14  O    4.157351   6.048439   4.190539   5.134216   4.813874
                   11         12         13         14
    11  H    0.000000
    12  N    2.676786   0.000000
    13  O    3.899881   1.235582   0.000000
    14  O    2.438365   1.224735   2.175926   0.000000
 Symmetry turned off by external request.
 Stoichiometry    C6H3N3O2
 Framework group  C1[X(C6H3N3O2)]
 Deg. of freedom    36
 Full point group                 C1      NOp   1
 Rotational constants (GHZ):      1.4693931      1.2464541      0.6743867
 Standard basis: Aug-CC-pVDZ (5D, 7F)
 Integral buffers will be    131072 words long.
 Raffenetti 2 integral format.
 Two-electron integral symmetry is turned off.
   280 basis functions,   506 primitive gaussians,   302 cartesian basis functions
    38 alpha electrons       38 beta electrons
       nuclear repulsion energy       545.3242090831 Hartrees.
 NAtoms=   14 NActive=   14 NUniq=   14 SFac= 1.00D+00 NAtFMM=   50 NAOKFM=F Big=F
 One-electron integrals computed using PRISM.
 NBasis=   280 RedAO= T  NBF=   280
 NBsUse=   280 1.00D-06 NBFU=   280
 Initial guess read from the read-write file.
 B after Tr=     0.000000    0.000000    0.000000
         Rot=    1.000000    0.000000    0.000000    0.000000 Ang=   0.00 deg.
 Harris functional with IExCor=  402 diagonalized for initial guess.
 ExpMin= 2.97D-02 ExpMax= 1.17D+04 ExpMxC= 4.01D+02 IAcc=3 IRadAn=         0 AccDes= 0.00D+00
 HarFok:  IExCor=  402 AccDes= 0.00D+00 IRadAn=         0 IDoV= 1
 ScaDFX=  1.000000  1.000000  1.000000  1.000000
 FoFCou: FMM=F IPFlag=           0 FMFlag=      100000 FMFlg1=           0
         NFxFlg=           0 DoJE=T BraDBF=F KetDBF=T FulRan=T
         Omega=  0.000000  0.000000  1.000000  0.000000  0.000000 ICntrl=     500 IOpCl=  0
         NMat0=    1 NMatS0=    1 NMatT0=    0 NMatD0=    1 NMtDS0=    0 NMtDT0=    0
         I1Cent=           4 NGrid=           0.
 Symmetry not used in FoFCou.
 Requested convergence on RMS density matrix=1.00D-08 within 128 cycles.
 Requested convergence on MAX density matrix=1.00D-06.
 Requested convergence on             energy=1.00D-06.
 No special actions if energy rises.
 SCF Done:  E(RB3LYP) =  -544.971488995     A.U. after   12 cycles
             Convg  =    0.7748D-08             -V/T =  2.0060
 QCSCF skips out because SCF is already converged.
 Range of M.O.s used for correlation:     1   280
 NBasis=   280 NAE=    38 NBE=    38 NFC=     0 NFV=     0
 NROrb=    280 NOA=    38 NOB=    38 NVA=   242 NVB=   242

 **** Warning!!: The largest alpha MO coefficient is  0.11222952D+03

 Symmetrizing basis deriv contribution to polar:
 IMax=3 JMax=2 DiffMx= 0.00D+00
 Calling FoFJK, ICntrl=      2147 FMM=F ISym2X=0 I1Cent= 0 IOpClX= 0 NMat=1 NMatS=1 NMatT=0.
 -------------------------------------------------------------------
 Center     Atomic                   Forces (Hartrees/Bohr)
 Number     Number              X              Y              Z
 -------------------------------------------------------------------
      1        6           0.000485976   -0.000088335   -0.000000002
      2        6           0.000243955   -0.000658507   -0.000000007
      3        6           0.001070021   -0.000681923    0.000000026
      4        6           0.000120621   -0.000126942    0.000000039
      5        6           0.000258101   -0.000131498    0.000000006
      6        6           0.000211175   -0.000154106   -0.000000020
      7        1           0.000041310   -0.000009009    0.000000000
      8        7          -0.002068210    0.000669003   -0.000000025
      9        7          -0.000497035    0.001373024    0.000000008
     10        1           0.000015031   -0.000013186   -0.000000004
     11        1           0.000024567   -0.000012998    0.000000000
     12        7           0.000013101    0.000005623    0.000000015
     13        8          -0.000033227   -0.000145703   -0.000000023
     14        8           0.000114613   -0.000025442   -0.000000012
 -------------------------------------------------------------------
 Cartesian Forces:  Max     0.002068210 RMS     0.000473753
 IRC-IRC-IRC-IRC-IRC-IRC-IRC-IRC-IRC-IRC-IRC-IRC-IRC-IRC-IRC-IRC-IRC-IRC
 Pt  4 Step number   1 out of a maximum of1000
 CORRECTOR INTEGRATION CONVERGENCE:
   Recorrection delta-x convergence threshold:    0.010000
   Delta-x Convergence Met
 Point Number:   4          Path Number:   1
   CHANGE IN THE REACTION COORDINATE =    0.03568
   NET REACTION COORDINATE UP TO THIS POINT =    0.14270
  # OF POINTS ALONG THE PATH =   4
  # OF STEPS =   1

 Calculating another point on the path.
 IRC-IRC-IRC-IRC-IRC-IRC-IRC-IRC-IRC-IRC-IRC-IRC-IRC-IRC-IRC-IRC-IRC-IRC
                          Input orientation:                          
 ---------------------------------------------------------------------
 Center     Atomic      Atomic             Coordinates (Angstroms)
 Number     Number       Type             X           Y           Z
 ---------------------------------------------------------------------
      1          6           0        2.657845    0.553257   -0.000001
      2          6           0        1.539628    1.430907   -0.000001
      3          6           0        0.388814    0.782781   -0.000001
      4          6           0        0.086400   -0.582073   -0.000001
      5          6           0        1.204421   -1.414796   -0.000001
      6          6           0        2.486553   -0.836452   -0.000001
      7          1           0        3.674957    0.954250    0.000000
      8          7           0       -0.928096    1.793599   -0.000001
      9          7           0       -1.467602    2.762063   -0.000001
     10          1           0        3.356919   -1.495422   -0.000002
     11          1           0        1.059546   -2.492549   -0.000001
     12          7           0       -1.259461   -1.154443    0.000002
     13          8           0       -2.208275   -0.363106    0.000008
     14          8           0       -1.376307   -2.373616   -0.000002
 ---------------------------------------------------------------------
                    Distance matrix (angstroms):
                    1          2          3          4          5
     1  C    0.000000
     2  C    1.421506   0.000000
     3  C    2.280610   1.320773   0.000000
     4  C    2.810925   2.482732   1.397956   0.000000
     5  C    2.446563   2.865377   2.344047   1.394058   0.000000
     6  C    1.400226   2.457150   2.649986   2.413595   1.406536
     7  H    1.093304   2.187884   3.290614   3.903592   3.422854
     8  N    3.794393   2.494234   1.660121   2.583218   3.852457
     9  N    4.679545   3.288679   2.713639   3.687569   4.958413
    10  H    2.164668   3.444699   3.741638   3.395659   2.154008
    11  H    3.439693   3.952719   3.343302   2.144046   1.087447
    12  N    4.273350   3.810372   2.543550   1.462514   2.477599
    13  O    4.951650   4.155148   2.838649   2.305098   3.571070
    14  O    4.984070   4.793440   3.616419   2.312820   2.753087
                    6          7          8          9         10
     6  C    0.000000
     7  H    2.149168   0.000000
     8  N    4.310103   4.678953   0.000000
     9  N    5.346462   5.451065   1.108599   0.000000
    10  H    1.091686   2.470231   5.401760   6.434453   0.000000
    11  H    2.186093   4.326754   4.724593   5.830731   2.504433
    12  N    3.759486   5.366104   2.966606   3.922033   4.628955
    13  O    4.718629   6.028918   2.508034   3.211741   5.679218
    14  O    4.157469   6.048963   4.191249   5.136490   4.814005
                   11         12         13         14
    11  H    0.000000
    12  N    2.677372   0.000000
    13  O    3.900408   1.235501   0.000000
    14  O    2.438754   1.224759   2.175850   0.000000
 Symmetry turned off by external request.
 Stoichiometry    C6H3N3O2
 Framework group  C1[X(C6H3N3O2)]
 Deg. of freedom    36
 Full point group                 C1      NOp   1
 Rotational constants (GHZ):      1.4685372      1.2457280      0.6739938
 Standard basis: Aug-CC-pVDZ (5D, 7F)
 Integral buffers will be    131072 words long.
 Raffenetti 2 integral format.
 Two-electron integral symmetry is turned off.
   280 basis functions,   506 primitive gaussians,   302 cartesian basis functions
    38 alpha electrons       38 beta electrons
       nuclear repulsion energy       545.2258971225 Hartrees.
 NAtoms=   14 NActive=   14 NUniq=   14 SFac= 1.00D+00 NAtFMM=   50 NAOKFM=F Big=F
 One-electron integrals computed using PRISM.
 NBasis=   280 RedAO= T  NBF=   280
 NBsUse=   280 1.00D-06 NBFU=   280
 Initial guess read from the read-write file.
 B after Tr=     0.000000    0.000000    0.000000
         Rot=    1.000000    0.000000    0.000000    0.000000 Ang=   0.00 deg.
 Harris functional with IExCor=  402 diagonalized for initial guess.
 ExpMin= 2.97D-02 ExpMax= 1.17D+04 ExpMxC= 4.01D+02 IAcc=3 IRadAn=         0 AccDes= 0.00D+00
 HarFok:  IExCor=  402 AccDes= 0.00D+00 IRadAn=         0 IDoV= 1
 ScaDFX=  1.000000  1.000000  1.000000  1.000000
 FoFCou: FMM=F IPFlag=           0 FMFlag=      100000 FMFlg1=           0
         NFxFlg=           0 DoJE=T BraDBF=F KetDBF=T FulRan=T
         Omega=  0.000000  0.000000  1.000000  0.000000  0.000000 ICntrl=     500 IOpCl=  0
         NMat0=    1 NMatS0=    1 NMatT0=    0 NMatD0=    1 NMtDS0=    0 NMtDT0=    0
         I1Cent=           4 NGrid=           0.
 Symmetry not used in FoFCou.
 Requested convergence on RMS density matrix=1.00D-08 within 128 cycles.
 Requested convergence on MAX density matrix=1.00D-06.
 Requested convergence on             energy=1.00D-06.
 No special actions if energy rises.
 SCF Done:  E(RB3LYP) =  -544.971522328     A.U. after   12 cycles
             Convg  =    0.7712D-08             -V/T =  2.0060
 QCSCF skips out because SCF is already converged.
 Range of M.O.s used for correlation:     1   280
 NBasis=   280 NAE=    38 NBE=    38 NFC=     0 NFV=     0
 NROrb=    280 NOA=    38 NOB=    38 NVA=   242 NVB=   242

 **** Warning!!: The largest alpha MO coefficient is  0.11255672D+03

 Symmetrizing basis deriv contribution to polar:
 IMax=3 JMax=2 DiffMx= 0.00D+00
 Calling FoFJK, ICntrl=      2147 FMM=F ISym2X=0 I1Cent= 0 IOpClX= 0 NMat=1 NMatS=1 NMatT=0.
 -------------------------------------------------------------------
 Center     Atomic                   Forces (Hartrees/Bohr)
 Number     Number              X              Y              Z
 -------------------------------------------------------------------
      1        6           0.000601317   -0.000109066   -0.000000003
      2        6           0.000310017   -0.000821339   -0.000000005
      3        6           0.001319710   -0.000841330    0.000000025
      4        6           0.000147030   -0.000160289    0.000000034
      5        6           0.000322862   -0.000169398    0.000000007
      6        6           0.000263023   -0.000194098   -0.000000018
      7        1           0.000049103   -0.000011674   -0.000000001
      8        7          -0.002563467    0.000835767   -0.000000024
      9        7          -0.000616755    0.001710487    0.000000008
     10        1           0.000020560   -0.000017966   -0.000000004
     11        1           0.000029764   -0.000015196    0.000000000
     12        7           0.000013435    0.000005350    0.000000012
     13        8          -0.000042367   -0.000183653   -0.000000021
     14        8           0.000145769   -0.000027596   -0.000000010
 -------------------------------------------------------------------
 Cartesian Forces:  Max     0.002563467 RMS     0.000587953
 IRC-IRC-IRC-IRC-IRC-IRC-IRC-IRC-IRC-IRC-IRC-IRC-IRC-IRC-IRC-IRC-IRC-IRC
 Pt  5 Step number   1 out of a maximum of1000
 CORRECTOR INTEGRATION CONVERGENCE:
   Recorrection delta-x convergence threshold:    0.010000
   Delta-x Convergence Met
 Point Number:   5          Path Number:   1
   CHANGE IN THE REACTION COORDINATE =    0.03568
   NET REACTION COORDINATE UP TO THIS POINT =    0.17839
  # OF POINTS ALONG THE PATH =   5
  # OF STEPS =   1

 Calculating another point on the path.
 IRC-IRC-IRC-IRC-IRC-IRC-IRC-IRC-IRC-IRC-IRC-IRC-IRC-IRC-IRC-IRC-IRC-IRC
                          Input orientation:                          
 ---------------------------------------------------------------------
 Center     Atomic      Atomic             Coordinates (Angstroms)
 Number     Number       Type             X           Y           Z
 ---------------------------------------------------------------------
      1          6           0        2.658754    0.553088   -0.000001
      2          6           0        1.540081    1.429663   -0.000001
      3          6           0        0.390813    0.781518   -0.000001
      4          6           0        0.086619   -0.582313   -0.000001
      5          6           0        1.204912   -1.415053   -0.000001
      6          6           0        2.486950   -0.836749   -0.000001
      7          1           0        3.675854    0.954042    0.000000
      8          7           0       -0.931399    1.794667   -0.000001
      9          7           0       -1.468409    2.764295   -0.000001
     10          1           0        3.357280   -1.495740   -0.000002
     11          1           0        1.060082   -2.492821   -0.000001
     12          7           0       -1.259442   -1.154438    0.000002
     13          8           0       -2.208325   -0.363314    0.000008
     14          8           0       -1.376140   -2.373647   -0.000002
 ---------------------------------------------------------------------
                    Distance matrix (angstroms):
                    1          2          3          4          5
     1  C    0.000000
     2  C    1.421202   0.000000
     3  C    2.279416   1.319435   0.000000
     4  C    2.811586   2.482056   1.397344   0.000000
     5  C    2.446883   2.864394   2.342581   1.394287   0.000000
     6  C    1.400415   2.456254   2.648127   2.413779   1.406434
     7  H    1.093277   2.188091   3.289568   3.904227   3.423180
     8  N    3.798778   2.498287   1.665747   2.585806   3.855662
     9  N    4.682191   3.291239   2.718108   3.690243   4.961209
    10  H    2.164633   3.443864   3.739764   3.395817   2.153880
    11  H    3.439958   3.951744   3.342039   2.144219   1.087455
    12  N    4.274097   3.809844   2.543869   1.462603   2.478096
    13  O    4.952600   4.155155   2.840098   2.305369   3.571602
    14  O    4.984591   4.792652   3.616240   2.312692   2.753313
                    6          7          8          9         10
     6  C    0.000000
     7  H    2.149517   0.000000
     8  N    4.313868   4.683313   0.000000
     9  N    5.349054   5.453481   1.108404   0.000000
    10  H    1.091670   2.470409   5.405510   6.437016   0.000000
    11  H    2.185984   4.327023   4.727425   5.833570   2.504254
    12  N    3.759837   5.366827   2.967294   3.924301   4.629320
    13  O    4.719083   6.029841   2.507473   3.213940   5.679643
    14  O    4.157586   6.049476   4.191973   5.138771   4.814144
                   11         12         13         14
    11  H    0.000000
    12  N    2.677958   0.000000
    13  O    3.900934   1.235418   0.000000
    14  O    2.439135   1.224781   2.175769   0.000000
 Symmetry turned off by external request.
 Stoichiometry    C6H3N3O2
 Framework group  C1[X(C6H3N3O2)]
 Deg. of freedom    36
 Full point group                 C1      NOp   1
 Rotational constants (GHZ):      1.4676795      1.2449975      0.6735993
 Standard basis: Aug-CC-pVDZ (5D, 7F)
 Integral buffers will be    131072 words long.
 Raffenetti 2 integral format.
 Two-electron integral symmetry is turned off.
   280 basis functions,   506 primitive gaussians,   302 cartesian basis functions
    38 alpha electrons       38 beta electrons
       nuclear repulsion energy       545.1274470881 Hartrees.
 NAtoms=   14 NActive=   14 NUniq=   14 SFac= 1.00D+00 NAtFMM=   50 NAOKFM=F Big=F
 One-electron integrals computed using PRISM.
 NBasis=   280 RedAO= T  NBF=   280
 NBsUse=   280 1.00D-06 NBFU=   280
 Initial guess read from the read-write file.
 B after Tr=     0.000000    0.000000    0.000000
         Rot=    1.000000    0.000000    0.000000    0.000000 Ang=   0.00 deg.
 Harris functional with IExCor=  402 diagonalized for initial guess.
 ExpMin= 2.97D-02 ExpMax= 1.17D+04 ExpMxC= 4.01D+02 IAcc=3 IRadAn=         0 AccDes= 0.00D+00
 HarFok:  IExCor=  402 AccDes= 0.00D+00 IRadAn=         0 IDoV= 1
 ScaDFX=  1.000000  1.000000  1.000000  1.000000
 FoFCou: FMM=F IPFlag=           0 FMFlag=      100000 FMFlg1=           0
         NFxFlg=           0 DoJE=T BraDBF=F KetDBF=T FulRan=T
         Omega=  0.000000  0.000000  1.000000  0.000000  0.000000 ICntrl=     500 IOpCl=  0
         NMat0=    1 NMatS0=    1 NMatT0=    0 NMatD0=    1 NMtDS0=    0 NMtDT0=    0
         I1Cent=           4 NGrid=           0.
 Symmetry not used in FoFCou.
 Requested convergence on RMS density matrix=1.00D-08 within 128 cycles.
 Requested convergence on MAX density matrix=1.00D-06.
 Requested convergence on             energy=1.00D-06.
 No special actions if energy rises.
 SCF Done:  E(RB3LYP) =  -544.971562857     A.U. after   12 cycles
             Convg  =    0.7615D-08             -V/T =  2.0060
 QCSCF skips out because SCF is already converged.
 Range of M.O.s used for correlation:     1   280
 NBasis=   280 NAE=    38 NBE=    38 NFC=     0 NFV=     0
 NROrb=    280 NOA=    38 NOB=    38 NVA=   242 NVB=   242

 **** Warning!!: The largest alpha MO coefficient is  0.11287570D+03

 Symmetrizing basis deriv contribution to polar:
 IMax=3 JMax=2 DiffMx= 0.00D+00
 Calling FoFJK, ICntrl=      2147 FMM=F ISym2X=0 I1Cent= 0 IOpClX= 0 NMat=1 NMatS=1 NMatT=0.
 -------------------------------------------------------------------
 Center     Atomic                   Forces (Hartrees/Bohr)
 Number     Number              X              Y              Z
 -------------------------------------------------------------------
      1        6           0.000725117   -0.000137694   -0.000000004
      2        6           0.000371113   -0.000979518   -0.000000003
      3        6           0.001562989   -0.000999642    0.000000024
      4        6           0.000176527   -0.000191123    0.000000031
      5        6           0.000384317   -0.000202244    0.000000007
      6        6           0.000312117   -0.000233646   -0.000000016
      7        1           0.000059890   -0.000014304   -0.000000001
      8        7          -0.003047298    0.001001216   -0.000000025
      9        7          -0.000744480    0.002051079    0.000000008
     10        1           0.000024584   -0.000021757   -0.000000004
     11        1           0.000035712   -0.000017799    0.000000000
     12        7           0.000013665    0.000002407    0.000000010
     13        8          -0.000049147   -0.000220793   -0.000000019
     14        8           0.000174893   -0.000036183   -0.000000009
 -------------------------------------------------------------------
 Cartesian Forces:  Max     0.003047298 RMS     0.000700880
 IRC-IRC-IRC-IRC-IRC-IRC-IRC-IRC-IRC-IRC-IRC-IRC-IRC-IRC-IRC-IRC-IRC-IRC
 Pt  6 Step number   1 out of a maximum of1000
 CORRECTOR INTEGRATION CONVERGENCE:
   Recorrection delta-x convergence threshold:    0.010000
   Delta-x Convergence Met
 Point Number:   6          Path Number:   1
   CHANGE IN THE REACTION COORDINATE =    0.03568
   NET REACTION COORDINATE UP TO THIS POINT =    0.21407
  # OF POINTS ALONG THE PATH =   6
  # OF STEPS =   1

 Calculating another point on the path.
 IRC-IRC-IRC-IRC-IRC-IRC-IRC-IRC-IRC-IRC-IRC-IRC-IRC-IRC-IRC-IRC-IRC-IRC
                          Input orientation:                          
 ---------------------------------------------------------------------
 Center     Atomic      Atomic             Coordinates (Angstroms)
 Number     Number       Type             X           Y           Z
 ---------------------------------------------------------------------
      1          6           0        2.659675    0.552910   -0.000001
      2          6           0        1.540544    1.428419   -0.000001
      3          6           0        0.392796    0.780261   -0.000001
      4          6           0        0.086839   -0.582554   -0.000001
      5          6           0        1.205400   -1.415310   -0.000001
      6          6           0        2.487346   -0.837048   -0.000002
      7          1           0        3.676763    0.953821    0.000000
      8          7           0       -0.934696    1.795751   -0.000001
      9          7           0       -1.469226    2.766532   -0.000001
     10          1           0        3.357639   -1.496067   -0.000002
     11          1           0        1.060618   -2.493092   -0.000001
     12          7           0       -1.259426   -1.154439    0.000002
     13          8           0       -2.208372   -0.363524    0.000008
     14          8           0       -1.375974   -2.373684   -0.000002
 ---------------------------------------------------------------------
                    Distance matrix (angstroms):
                    1          2          3          4          5
     1  C    0.000000
     2  C    1.420904   0.000000
     3  C    2.278251   1.318118   0.000000
     4  C    2.812253   2.481385   1.396737   0.000000
     5  C    2.447204   2.863410   2.341124   1.394512   0.000000
     6  C    1.400601   2.455356   2.646286   2.413960   1.406333
     7  H    1.093251   2.188304   3.288551   3.904870   3.423510
     8  N    3.803177   2.502348   1.671363   2.588410   3.858876
     9  N    4.684863   3.293822   2.722572   3.692927   4.964013
    10  H    2.164593   3.443029   3.737909   3.395974   2.153753
    11  H    3.440220   3.950769   3.340783   2.144389   1.087463
    12  N    4.274856   3.809329   2.544190   1.462696   2.478593
    13  O    4.953557   4.155169   2.841534   2.305637   3.572127
    14  O    4.985120   4.791875   3.616064   2.312567   2.753539
                    6          7          8          9         10
     6  C    0.000000
     7  H    2.149867   0.000000
     8  N    4.317639   4.687686   0.000000
     9  N    5.351659   5.455926   1.108214   0.000000
    10  H    1.091657   2.470586   5.409270   6.439594   0.000000
    11  H    2.185872   4.327289   4.730270   5.836417   2.504069
    12  N    3.760192   5.367562   2.968007   3.926580   4.629686
    13  O    4.719533   6.030772   2.506934   3.216145   5.680064
    14  O    4.157703   6.049996   4.192721   5.141062   4.814281
                   11         12         13         14
    11  H    0.000000
    12  N    2.678544   0.000000
    13  O    3.901456   1.235332   0.000000
    14  O    2.439517   1.224803   2.175690   0.000000
 Symmetry turned off by external request.
 Stoichiometry    C6H3N3O2
 Framework group  C1[X(C6H3N3O2)]
 Deg. of freedom    36
 Full point group                 C1      NOp   1
 Rotational constants (GHZ):      1.4668201      1.2442589      0.6732021
 Standard basis: Aug-CC-pVDZ (5D, 7F)
 Integral buffers will be    131072 words long.
 Raffenetti 2 integral format.
 Two-electron integral symmetry is turned off.
   280 basis functions,   506 primitive gaussians,   302 cartesian basis functions
    38 alpha electrons       38 beta electrons
       nuclear repulsion energy       545.0285045126 Hartrees.
 NAtoms=   14 NActive=   14 NUniq=   14 SFac= 1.00D+00 NAtFMM=   50 NAOKFM=F Big=F
 One-electron integrals computed using PRISM.
 NBasis=   280 RedAO= T  NBF=   280
 NBsUse=   280 1.00D-06 NBFU=   280
 Initial guess read from the read-write file.
 B after Tr=     0.000000    0.000000    0.000000
         Rot=    1.000000    0.000000    0.000000    0.000000 Ang=   0.00 deg.
 Harris functional with IExCor=  402 diagonalized for initial guess.
 ExpMin= 2.97D-02 ExpMax= 1.17D+04 ExpMxC= 4.01D+02 IAcc=3 IRadAn=         0 AccDes= 0.00D+00
 HarFok:  IExCor=  402 AccDes= 0.00D+00 IRadAn=         0 IDoV= 1
 ScaDFX=  1.000000  1.000000  1.000000  1.000000
 FoFCou: FMM=F IPFlag=           0 FMFlag=      100000 FMFlg1=           0
         NFxFlg=           0 DoJE=T BraDBF=F KetDBF=T FulRan=T
         Omega=  0.000000  0.000000  1.000000  0.000000  0.000000 ICntrl=     500 IOpCl=  0
         NMat0=    1 NMatS0=    1 NMatT0=    0 NMatD0=    1 NMtDS0=    0 NMtDT0=    0
         I1Cent=           4 NGrid=           0.
 Symmetry not used in FoFCou.
 Requested convergence on RMS density matrix=1.00D-08 within 128 cycles.
 Requested convergence on MAX density matrix=1.00D-06.
 Requested convergence on             energy=1.00D-06.
 No special actions if energy rises.
 SCF Done:  E(RB3LYP) =  -544.971610472     A.U. after   12 cycles
             Convg  =    0.7515D-08             -V/T =  2.0060
 QCSCF skips out because SCF is already converged.
 Range of M.O.s used for correlation:     1   280
 NBasis=   280 NAE=    38 NBE=    38 NFC=     0 NFV=     0
 NROrb=    280 NOA=    38 NOB=    38 NVA=   242 NVB=   242

 **** Warning!!: The largest alpha MO coefficient is  0.11319067D+03

 Symmetrizing basis deriv contribution to polar:
 IMax=3 JMax=2 DiffMx= 0.00D+00
 Calling FoFJK, ICntrl=      2147 FMM=F ISym2X=0 I1Cent= 0 IOpClX= 0 NMat=1 NMatS=1 NMatT=0.
 -------------------------------------------------------------------
 Center     Atomic                   Forces (Hartrees/Bohr)
 Number     Number              X              Y              Z
 -------------------------------------------------------------------
      1        6           0.000853721   -0.000164493   -0.000000005
      2        6           0.000437139   -0.001136225   -0.000000002
      3        6           0.001797813   -0.001153922    0.000000023
      4        6           0.000201763   -0.000225683    0.000000029
      5        6           0.000443763   -0.000236533    0.000000007
      6        6           0.000366047   -0.000273016   -0.000000015
      7        1           0.000068121   -0.000016685   -0.000000001
      8        7          -0.003525202    0.001173360   -0.000000025
      9        7          -0.000871213    0.002383093    0.000000008
     10        1           0.000028073   -0.000025826   -0.000000003
     11        1           0.000040546   -0.000020278    0.000000000
     12        7           0.000016777    0.000001867    0.000000009
     13        8          -0.000061959   -0.000260215   -0.000000017
     14        8           0.000204612   -0.000045445   -0.000000009
 -------------------------------------------------------------------
 Cartesian Forces:  Max     0.003525202 RMS     0.000812416
 IRC-IRC-IRC-IRC-IRC-IRC-IRC-IRC-IRC-IRC-IRC-IRC-IRC-IRC-IRC-IRC-IRC-IRC
 Pt  7 Step number   1 out of a maximum of1000
 CORRECTOR INTEGRATION CONVERGENCE:
   Recorrection delta-x convergence threshold:    0.010000
   Delta-x Convergence Met
 Point Number:   7          Path Number:   1
   CHANGE IN THE REACTION COORDINATE =    0.03568
   NET REACTION COORDINATE UP TO THIS POINT =    0.24975
  # OF POINTS ALONG THE PATH =   7
  # OF STEPS =   1

 Calculating another point on the path.
 IRC-IRC-IRC-IRC-IRC-IRC-IRC-IRC-IRC-IRC-IRC-IRC-IRC-IRC-IRC-IRC-IRC-IRC
                          Input orientation:                          
 ---------------------------------------------------------------------
 Center     Atomic      Atomic             Coordinates (Angstroms)
 Number     Number       Type             X           Y           Z
 ---------------------------------------------------------------------
      1          6           0        2.660610    0.552728   -0.000001
      2          6           0        1.541018    1.427173   -0.000001
      3          6           0        0.394762    0.779008   -0.000001
      4          6           0        0.087056   -0.582800   -0.000001
      5          6           0        1.205886   -1.415568   -0.000001
      6          6           0        2.487748   -0.837350   -0.000002
      7          1           0        3.677677    0.953606    0.000000
      8          7           0       -0.937988    1.796848   -0.000001
      9          7           0       -1.470050    2.768772   -0.000001
     10          1           0        3.357997   -1.496404   -0.000002
     11          1           0        1.061146   -2.493363   -0.000001
     12          7           0       -1.259411   -1.154439    0.000002
     13          8           0       -2.208424   -0.363739    0.000008
     14          8           0       -1.375806   -2.373722   -0.000002
 ---------------------------------------------------------------------
                    Distance matrix (angstroms):
                    1          2          3          4          5
     1  C    0.000000
     2  C    1.420613   0.000000
     3  C    2.277119   1.316822   0.000000
[...]
 305                   -0.03599   8.92045
 306                   -0.03606   8.95610
 307                   -0.03614   8.99176
 308                   -0.03622   9.02741
 309                   -0.03629   9.06307
 310                   -0.03637   9.09873
 311                   -0.03644   9.13440
 312                   -0.03651   9.17007
 313                   -0.03659   9.20574
 314                   -0.03666   9.24142
 315                   -0.03673   9.27710
 316                   -0.03680   9.31278
 317                   -0.03687   9.34847
 318                   -0.03694   9.38415
 319                   -0.03701   9.41983
 320                   -0.03708   9.45551
 321                   -0.03715   9.49120
 322                   -0.03721   9.52688
 323                   -0.03728   9.56257
 324                   -0.03735   9.59825
 325                   -0.03741   9.63393
 326                   -0.03748   9.66962
 327                   -0.03754   9.70530
 328                   -0.03760   9.74098
 329                   -0.03767   9.77667
 330                   -0.03773   9.81235
 331                   -0.03779   9.84803
 332                   -0.03785   9.88372
 333                   -0.03791   9.91940
 334                   -0.03798   9.95508
 335                   -0.03803   9.99076
 336                   -0.03809  10.02645
 337                   -0.03815  10.06213
 338                   -0.03821  10.09781
 339                   -0.03827  10.13348
 340                   -0.03833  10.16916
 341                   -0.03838  10.20483
 342                   -0.03844  10.24050
 343                   -0.03849  10.27616
 344                   -0.03855  10.31182
 345                   -0.03860  10.34746
 346                   -0.03866  10.38310
 347                   -0.03871  10.41874
 348                   -0.03876  10.45438
 349                   -0.03881  10.49003
 350                   -0.03887  10.52569
 351                   -0.03892  10.56135
 352                   -0.03897  10.59702
 353                   -0.03902  10.63269
 354                   -0.03907  10.66836
 355                   -0.03912  10.70404
 356                   -0.03917  10.73972
 357                   -0.03921  10.77540
 358                   -0.03926  10.81109
 359                   -0.03931  10.84677
 360                   -0.03935  10.88245
 361                   -0.03940  10.91813
 362                   -0.03945  10.95382
 363                   -0.03949  10.98950
 364                   -0.03954  11.02518
 365                   -0.03958  11.06087
 366                   -0.03962  11.09655
 367                   -0.03967  11.13223
 368                   -0.03971  11.16792
 369                   -0.03975  11.20360
 370                   -0.03980  11.23928
 371                   -0.03984  11.27497
 372                   -0.03988  11.31065
 373                   -0.03992  11.34633
 374                   -0.03996  11.38202
 375                   -0.04000  11.41770
 376                   -0.04004  11.45339
 377                   -0.04008  11.48907
 378                   -0.04012  11.52475
 379                   -0.04015  11.56044
 380                   -0.04019  11.59612
 381                   -0.04023  11.63180
 382                   -0.04027  11.66748
 383                   -0.04030  11.70317
 384                   -0.04034  11.73885
 385                   -0.04037  11.77453
 386                   -0.04041  11.81021
 387                   -0.04044  11.84589
 388                   -0.04048  11.88157
 389                   -0.04051  11.91724
 390                   -0.04055  11.95291
 391                   -0.04058  11.98857
 392                   -0.04061  12.02422
 393                   -0.04065  12.05987
 394                   -0.04068  12.09550
 395                   -0.04071  12.13113
 396                   -0.04074  12.16675
 397                   -0.04077  12.20237
 --------------------------------------------------------------------------
 
 Total number of points:                  396
 Total number of gradient calculations:   398
 Total number of Hessian calculations:      1
 IRC-IRC-IRC-IRC-IRC-IRC-IRC-IRC-IRC-IRC-IRC-IRC-IRC-IRC-IRC-IRC-IRC-IRC
                          Input orientation:                          
 ---------------------------------------------------------------------
 Center     Atomic      Atomic             Coordinates (Angstroms)
 Number     Number       Type             X           Y           Z
 ---------------------------------------------------------------------
      1          6           0        2.631689    0.564110   -0.000001
      2          6           0        1.548369    1.498782   -0.000001
      3          6           0        0.322490    0.836291    0.000000
      4          6           0        0.075305   -0.566491    0.000000
      5          6           0        1.175870   -1.398702   -0.000001
      6          6           0        2.464080   -0.817948   -0.000002
      7          1           0        3.654114    0.953026   -0.000001
      8          7           0       -0.760159    1.745287   -0.000001
      9          7           0       -1.467669    2.604868   -0.000001
     10          1           0        3.332305   -1.480667   -0.000003
     11          1           0        1.029871   -2.476057   -0.000001
     12          7           0       -1.271499   -1.142707    0.000002
     13          8           0       -2.214859   -0.345098    0.000007
     14          8           0       -1.391701   -2.361165   -0.000002
 ---------------------------------------------------------------------
                    Distance matrix (angstroms):
                    1          2          3          4          5
     1  C    0.000000
     2  C    1.430802   0.000000
     3  C    2.325185   1.393440   0.000000
     4  C    2.795238   2.536783   1.424394   0.000000
     5  C    2.443775   2.921329   2.392373   1.379789   0.000000
     6  C    1.392184   2.491137   2.706089   2.401974   1.413068
     7  H    1.093896   2.175319   3.333669   3.888034   3.416477
     8  N    3.591631   2.321652   1.413649   2.458113   3.692272
     9  N    4.579239   3.212462   2.516453   3.526796   4.797590
    10  H    2.161476   3.472686   3.798326   3.382863   2.157992
    11  H    3.436341   4.008514   3.387040   2.134863   1.087204
    12  N    4.260058   3.863821   2.541108   1.464891   2.460721
    13  O    4.931094   4.190678   2.798896   2.300841   3.550652
    14  O    4.974425   4.852134   3.627971   2.317965   2.742035
                    6          7          8          9         10
     6  C    0.000000
     7  H    2.133665   0.000000
     8  N    4.118968   4.484806   0.000000
     9  N    5.212900   5.381565   1.113306   0.000000
    10  H    1.092251   2.454878   5.211050   6.303281   0.000000
    11  H    2.192324   4.318017   4.585189   5.661582   2.508387
    12  N    3.749669   5.352921   2.932913   3.752706   4.616191
    13  O    4.702772   6.010822   2.546736   3.043122   5.662204
    14  O    4.153140   6.036896   4.154732   4.966614   4.805363
                   11         12         13         14
    11  H    0.000000
    12  N    2.659723   0.000000
    13  O    3.881915   1.235358   0.000000
    14  O    2.424296   1.224373   2.177640   0.000000
 Symmetry turned off by external request.
 Stoichiometry    C6H3N3O2
 Framework group  C1[X(C6H3N3O2)]
 Deg. of freedom    36
 Full point group                 C1      NOp   1
 Rotational constants (GHZ):      1.5394290      1.2594434      0.6927160

 **********************************************************************

            Population analysis using the SCF density.

 **********************************************************************

 Alpha  occ. eigenvalues --  -19.21249 -19.21243 -14.60110 -14.55247 -14.50877
 Alpha  occ. eigenvalues --  -10.29738 -10.28896 -10.24232 -10.23523 -10.22261
 Alpha  occ. eigenvalues --  -10.18739  -1.26256  -1.20440  -1.08990  -0.93596
 Alpha  occ. eigenvalues --   -0.86035  -0.82652  -0.73979  -0.70301  -0.63736
 Alpha  occ. eigenvalues --   -0.60808  -0.57164  -0.57024  -0.55251  -0.54490
 Alpha  occ. eigenvalues --   -0.54353  -0.53136  -0.49506  -0.47173  -0.43081
 Alpha  occ. eigenvalues --   -0.40921  -0.39155  -0.34758  -0.34623  -0.32964
 Alpha  occ. eigenvalues --   -0.30892  -0.29062  -0.21946
 Alpha virt. eigenvalues --   -0.14194  -0.10560  -0.10056  -0.02696  -0.01622
 Alpha virt. eigenvalues --   -0.01594   0.00544   0.01173   0.02898   0.03423
 Alpha virt. eigenvalues --    0.03909   0.04882   0.06204   0.06932   0.07579
 Alpha virt. eigenvalues --    0.07622   0.08316   0.08469   0.08898   0.09565
 Alpha virt. eigenvalues --    0.10500   0.10946   0.11088   0.11537   0.12054
 Alpha virt. eigenvalues --    0.12130   0.12320   0.13721   0.13752   0.15158
 Alpha virt. eigenvalues --    0.15503   0.16457   0.17033   0.17851   0.18372
 Alpha virt. eigenvalues --    0.18546   0.18845   0.19838   0.19984   0.21137
 Alpha virt. eigenvalues --    0.21264   0.21393   0.22676   0.23070   0.23708
 Alpha virt. eigenvalues --    0.25226   0.25725   0.26037   0.26457   0.26664
 Alpha virt. eigenvalues --    0.27120   0.28031   0.28564   0.28943   0.29253
 Alpha virt. eigenvalues --    0.29595   0.30421   0.30995   0.31870   0.32872
 Alpha virt. eigenvalues --    0.33421   0.34706   0.35951   0.36220   0.37662
 Alpha virt. eigenvalues --    0.37824   0.38096   0.40877   0.41501   0.42150
 Alpha virt. eigenvalues --    0.43249   0.43377   0.45603   0.46906   0.49138
 Alpha virt. eigenvalues --    0.49239   0.49995   0.50766   0.51056   0.51392
 Alpha virt. eigenvalues --    0.53035   0.53266   0.53798   0.55398   0.56001
 Alpha virt. eigenvalues --    0.56748   0.57517   0.58727   0.58888   0.60769
 Alpha virt. eigenvalues --    0.60883   0.62174   0.63470   0.64540   0.65100
 Alpha virt. eigenvalues --    0.65822   0.67899   0.68305   0.69250   0.69262
 Alpha virt. eigenvalues --    0.70311   0.71200   0.71386   0.72298   0.72924
 Alpha virt. eigenvalues --    0.73715   0.74575   0.75847   0.76513   0.77389
 Alpha virt. eigenvalues --    0.78304   0.78825   0.81397   0.82553   0.83032
 Alpha virt. eigenvalues --    0.83936   0.85569   0.87551   0.87859   0.88800
 Alpha virt. eigenvalues --    0.90137   0.90680   0.95178   0.97029   0.97364
 Alpha virt. eigenvalues --    1.00475   1.01019   1.02080   1.03447   1.03821
 Alpha virt. eigenvalues --    1.06070   1.07185   1.10385   1.11532   1.12283
 Alpha virt. eigenvalues --    1.14904   1.15819   1.17374   1.19922   1.20863
 Alpha virt. eigenvalues --    1.21027   1.22645   1.25058   1.26338   1.26601
 Alpha virt. eigenvalues --    1.27134   1.29551   1.31311   1.31982   1.34067
 Alpha virt. eigenvalues --    1.34344   1.36460   1.38575   1.39042   1.39215
 Alpha virt. eigenvalues --    1.40491   1.40585   1.41779   1.43030   1.44339
 Alpha virt. eigenvalues --    1.47964   1.48622   1.53146   1.54431   1.56350
 Alpha virt. eigenvalues --    1.58081   1.58450   1.59367   1.60740   1.61638
 Alpha virt. eigenvalues --    1.63186   1.65368   1.66475   1.68891   1.73917
 Alpha virt. eigenvalues --    1.74027   1.74433   1.75581   1.79884   1.81149
 Alpha virt. eigenvalues --    1.84453   1.88258   1.88469   1.89005   1.90335
 Alpha virt. eigenvalues --    1.91561   1.94618   1.96061   1.98852   2.00079
 Alpha virt. eigenvalues --    2.01420   2.04668   2.04716   2.06479   2.06791
 Alpha virt. eigenvalues --    2.09860   2.11287   2.15030   2.18504   2.18637
 Alpha virt. eigenvalues --    2.23466   2.25150   2.26794   2.28279   2.30967
 Alpha virt. eigenvalues --    2.31350   2.33826   2.37202   2.38816   2.44746
 Alpha virt. eigenvalues --    2.46412   2.47235   2.52569   2.56576   2.61245
 Alpha virt. eigenvalues --    2.67054   2.73325   2.75585   2.80738   2.85079
 Alpha virt. eigenvalues --    2.85911   2.88307   2.93272   3.07791   3.09488
 Alpha virt. eigenvalues --    3.15270   3.21973   3.26532   3.27745   3.28204
 Alpha virt. eigenvalues --    3.34331   3.36711   3.36984   3.41526   3.42977
 Alpha virt. eigenvalues --    3.53342   3.57239   3.58071   3.76597   3.77816
 Alpha virt. eigenvalues --    3.81249   4.15461
          Condensed to atoms (all electrons):
              1          2          3          4          5          6
     1  C    8.603476   0.113270  -0.874244  -0.832873   0.803720  -2.511465
     2  C    0.113270  10.294018  -1.176671  -0.361427  -1.590349   0.378880
     3  C   -0.874244  -1.176671  11.917809  -2.440565  -1.549378  -0.449366
     4  C   -0.832873  -0.361427  -2.440565  11.717391  -2.556999  -0.094020
     5  C    0.803720  -1.590349  -1.549378  -2.556999  13.049053  -2.313712
     6  C   -2.511465   0.378880  -0.449366  -0.094020  -2.313712  11.299311
     7  H   -0.973688  -0.334082   0.232435  -0.108692   0.011488   0.580816
     8  N    0.207957  -0.069410   0.668282  -0.558308  -0.091810  -0.167838
     9  N    0.156283   0.380180  -1.454094  -0.153352   0.037538  -0.071864
    10  H    0.707209  -0.135991  -0.028477  -0.145509   0.708435  -1.730650
    11  H   -0.152431   0.119787  -0.213262   0.869432  -1.847312   0.697635
    12  N    0.077187  -0.159575   0.002084  -0.507010   0.257765  -0.126022
    13  O   -0.002854  -0.005250  -0.077778   0.198407  -0.009596  -0.024328
    14  O   -0.017105  -0.002380  -0.026081   0.103459   0.046796  -0.033467
              7          8          9         10         11         12
     1  C   -0.973688   0.207957   0.156283   0.707209  -0.152431   0.077187
     2  C   -0.334082  -0.069410   0.380180  -0.135991   0.119787  -0.159575
     3  C    0.232435   0.668282  -1.454094  -0.028477  -0.213262   0.002084
     4  C   -0.108692  -0.558308  -0.153352  -0.145509   0.869432  -0.507010
     5  C    0.011488  -0.091810   0.037538   0.708435  -1.847312   0.257765
     6  C    0.580816  -0.167838  -0.071864  -1.730650   0.697635  -0.126022
     7  H    2.526212  -0.031855   0.003516  -0.219451  -0.006933   0.002763
     8  N   -0.031855   7.646826  -1.051111   0.011669  -0.014014  -0.021047
     9  N    0.003516  -1.051111  10.029974  -0.000635   0.003115  -0.028205
    10  H   -0.219451   0.011669  -0.000635   2.746930  -0.192975  -0.001945
    11  H   -0.006933  -0.014014   0.003115  -0.192975   2.685019  -0.141652
    12  N    0.002763  -0.021047  -0.028205  -0.001945  -0.141652   7.872397
    13  O   -0.000390  -0.004135  -0.015254   0.000027  -0.011707  -0.494598
    14  O   -0.000304  -0.010543  -0.004328   0.000973  -0.014978  -0.440830
             13         14
     1  C   -0.002854  -0.017105
     2  C   -0.005250  -0.002380
     3  C   -0.077778  -0.026081
     4  C    0.198407   0.103459
     5  C   -0.009596   0.046796
     6  C   -0.024328  -0.033467
     7  H   -0.000390  -0.000304
     8  N   -0.004135  -0.010543
     9  N   -0.015254  -0.004328
    10  H    0.000027   0.000973
    11  H   -0.011707  -0.014978
    12  N   -0.494598  -0.440830
    13  O    9.194270  -0.047476
    14  O   -0.047476   9.122396
 Mulliken atomic charges:
              1
     1  C    0.695557
     2  C   -1.451000
     3  C    1.469305
     4  C    0.870067
     5  C    1.044359
     6  C    0.566091
     7  H   -0.681836
     8  N    0.485337
     9  N   -0.831761
    10  H   -0.719611
    11  H   -0.779724
    12  N    0.708688
    13  O   -0.699340
    14  O   -0.676132
 Sum of Mulliken atomic charges =   0.00000
 Mulliken charges with hydrogens summed into heavy atoms:
              1
     1  C    0.013721
     2  C   -1.451000
     3  C    1.469305
     4  C    0.870067
     5  C    0.264635
     6  C   -0.153520
     8  N    0.485337
     9  N   -0.831761
    12  N    0.708688
    13  O   -0.699340
    14  O   -0.676132
 Sum of Mulliken charges with hydrogens summed into heavy atoms =   0.00000
 APT atomic charges:
              1
     1  C    0.766528
     2  C   -0.233838
     3  C   -0.086753
     4  C    0.151752
     5  C    0.137100
     6  C    0.543927
     7  H   -0.120014
     8  N   -1.341260
     9  N    0.905519
    10  H   -0.156441
    11  H   -0.147103
    12  N    0.664278
    13  O   -0.610566
    14  O   -0.473131
 Sum of APT charges=   0.00000
 APT Atomic charges with hydrogens summed into heavy atoms:
              1
     1  C    0.646514
     2  C   -0.233838
     3  C   -0.086753
     4  C    0.151752
     5  C   -0.010003
     6  C    0.387486
     7  H    0.000000
     8  N   -1.341260
     9  N    0.905519
    10  H    0.000000
    11  H    0.000000
    12  N    0.664278
    13  O   -0.610566
    14  O   -0.473131
 Sum of APT charges=   0.00000
 Electronic spatial extent (au):  <R**2>=           1507.6727
 Charge=              0.0000 electrons
 Dipole moment (field-independent basis, Debye):
    X=              1.5188    Y=             -0.7870    Z=              0.0000  Tot=              1.7106
 Quadrupole moment (field-independent basis, Debye-Ang):
   XX=            -63.7624   YY=            -67.5384   ZZ=            -61.6149
   XY=            -11.8332   XZ=              0.0000   YZ=              0.0000
 Traceless Quadrupole moment (field-independent basis, Debye-Ang):
   XX=              0.5429   YY=             -3.2332   ZZ=              2.6903
   XY=            -11.8332   XZ=              0.0000   YZ=              0.0000
 Octapole moment (field-independent basis, Debye-Ang**2):
  XXX=              2.0579  YYY=            -15.5176  ZZZ=              0.0000  XYY=            -13.0366
  XXY=             -7.2346  XXZ=              0.0000  XZZ=            -17.6613  YZZ=             -1.9752
  YYZ=              0.0000  XYZ=              0.0000
 Hexadecapole moment (field-independent basis, Debye-Ang**3):
 XXXX=          -1028.8632 YYYY=           -914.7208 ZZZZ=            -64.4602 XXXY=            -47.4907
 XXXZ=              0.0005 YYYX=            -84.7453 YYYZ=              0.0001 ZZZX=              0.0005
 ZZZY=              0.0000 XXYY=           -346.0970 XXZZ=           -197.5162 YYZZ=           -153.7788
 XXYZ=              0.0001 YYXZ=              0.0001 ZZXY=             -4.9018
 N-N= 5.503341054402D+02 E-N=-2.371269326714D+03  KE= 5.416837480518D+02
  Exact polarizability:   0.000   0.000   0.000   0.000   0.000   0.000
 Approx polarizability: 277.770 -39.395 249.646   0.000   0.000  90.344
 -------------------------------------------------------------------
 Center     Atomic                   Forces (Hartrees/Bohr)
 Number     Number              X              Y              Z
 -------------------------------------------------------------------
      1        6           0.000036417    0.000011946   -0.000000003
      2        6           0.000022735   -0.000052511    0.000000002
      3        6          -0.000045728    0.000138591    0.000000003
      4        6           0.000007512   -0.000008809    0.000000000
      5        6           0.000008100   -0.000020816   -0.000000004
      6        6           0.000002844   -0.000014165   -0.000000008
      7        1          -0.000011322    0.000008108    0.000000002
      8        7          -0.000239923    0.000201395    0.000000002
      9        7           0.000219238   -0.000366899    0.000000002
     10        1          -0.000005515    0.000013481    0.000000005
     11        1          -0.000000974    0.000002118    0.000000002
     12        7           0.000001964    0.000024123    0.000000000
     13        8           0.000028611    0.000038479   -0.000000008
     14        8          -0.000023959    0.000024959    0.000000006
 -------------------------------------------------------------------
 Cartesian Forces:  Max     0.000366899 RMS     0.000086214

 This type of calculation cannot be archived.


 IF THE FACTS DO NOT CONFORM TO THE THEORY, THEY MUST BE DISPOSED OF.
 Job cpu time:  3 days  3 hours 32 minutes 20.8 seconds.
 File lengths (MBytes):  RWF=    131 Int=      0 D2E=      0 Chk=     21 Scr=      1
 Normal termination of Gaussian 09 at Fri Dec 21 10:24:56 2018.
