 Entering Gaussian System, Link 0=/home/ubuntu/g09/g09
 Input=3-NO2-C6H3-N2-v2-IRC.gjf
 Output=3-NO2-C6H3-N2-v2-IRC.log
 Initial command:
 /home/ubuntu/g09/l1.exe /home/ubuntu/g09/Gau-30222.inp -scrdir=/home/ubuntu/g09/
 Entering Link 1 = /home/ubuntu/g09/l1.exe PID=     30224.
  
 Copyright (c) 1988,1990,1992,1993,1995,1998,2003,2009,2010,
            Gaussian, Inc.  All Rights Reserved.
  
 This is part of the Gaussian(R) 09 program.  It is based on
 the Gaussian(R) 03 system (copyright 2003, Gaussian, Inc.),
 the Gaussian(R) 98 system (copyright 1998, Gaussian, Inc.),
 the Gaussian(R) 94 system (copyright 1995, Gaussian, Inc.),
 the Gaussian 92(TM) system (copyright 1992, Gaussian, Inc.),
 the Gaussian 90(TM) system (copyright 1990, Gaussian, Inc.),
 the Gaussian 88(TM) system (copyright 1988, Gaussian, Inc.),
 the Gaussian 86(TM) system (copyright 1986, Carnegie Mellon
 University), and the Gaussian 82(TM) system (copyright 1983,
 Carnegie Mellon University). Gaussian is a federally registered
 trademark of Gaussian, Inc.
  
 This software contains proprietary and confidential information,
 including trade secrets, belonging to Gaussian, Inc.
  
 This software is provided under written license and may be
 used, copied, transmitted, or stored only in accord with that
 written license.
  
 The following legend is applicable only to US Government
 contracts under FAR:
  
                    RESTRICTED RIGHTS LEGEND
  
 Use, reproduction and disclosure by the US Government is
 subject to restrictions as set forth in subparagraphs (a)
 and (c) of the Commercial Computer Software - Restricted
 Rights clause in FAR 52.227-19.
  
 Gaussian, Inc.
 340 Quinnipiac St., Bldg. 40, Wallingford CT 06492
  
  
 ---------------------------------------------------------------
 Warning -- This program may not be used in any manner that
 competes with the business of Gaussian, Inc. or will provide
 assistance to any competitor of Gaussian, Inc.  The licensee
 of this program is prohibited from giving any competitor of
 Gaussian, Inc. access to this program.  By using this program,
 the user acknowledges that Gaussian, Inc. is engaged in the
 business of creating and licensing software in the field of
 computational chemistry and represents and warrants to the
 licensee that it is not a competitor of Gaussian, Inc. and that
 it will not use this program in any manner prohibited above.
 ---------------------------------------------------------------
  

 Cite this work as:
 Gaussian 09, Revision B.01,
 M. J. Frisch, G. W. Trucks, H. B. Schlegel, G. E. Scuseria, 
 M. A. Robb, J. R. Cheeseman, G. Scalmani, V. Barone, B. Mennucci, 
 G. A. Petersson, H. Nakatsuji, M. Caricato, X. Li, H. P. Hratchian, 
 A. F. Izmaylov, J. Bloino, G. Zheng, J. L. Sonnenberg, M. Hada, 
 M. Ehara, K. Toyota, R. Fukuda, J. Hasegawa, M. Ishida, T. Nakajima, 
 Y. Honda, O. Kitao, H. Nakai, T. Vreven, J. A. Montgomery, Jr., 
 J. E. Peralta, F. Ogliaro, M. Bearpark, J. J. Heyd, E. Brothers, 
 K. N. Kudin, V. N. Staroverov, T. Keith, R. Kobayashi, J. Normand, 
 K. Raghavachari, A. Rendell, J. C. Burant, S. S. Iyengar, J. Tomasi, 
 M. Cossi, N. Rega, J. M. Millam, M. Klene, J. E. Knox, J. B. Cross, 
 V. Bakken, C. Adamo, J. Jaramillo, R. Gomperts, R. E. Stratmann, 
 O. Yazyev, A. J. Austin, R. Cammi, C. Pomelli, J. W. Ochterski, 
 R. L. Martin, K. Morokuma, V. G. Zakrzewski, G. A. Voth, 
 P. Salvador, J. J. Dannenberg, S. Dapprich, A. D. Daniels, 
 O. Farkas, J. B. Foresman, J. V. Ortiz, J. Cioslowski, 
 and D. J. Fox, Gaussian, Inc., Wallingford CT, 2010.
 
 ******************************************
 Gaussian 09:  EM64L-G09RevB.01 12-Aug-2010
                21-Dec-2018 
 ******************************************
 %chk=3-NO2-C6H3-N2-v2-IRC.chk
 %mem=500MW
 %nproc=7
 Will use up to    7 processors via shared memory.
 ----------------------------------------------------------------------
 # rb3lyp/aug-cc-pVDZ irc=(calcfc,maxcycle=1000,maxpoints=10000,stepsiz
 e=1) scf=(xqc,maxcycle=1000) nosymm
 ----------------------------------------------------------------------
 1/6=1000,10=4,14=-1,18=10,26=3,38=1,39=1,42=10000,44=3/1,23;
 2/12=2,15=1,17=6,18=5,29=1,40=1/2;
 3/5=16,7=10,11=2,16=1,25=1,30=1,71=2,74=-5,116=1/1,2,3;
 4//1;
 5/5=2,7=1000,8=3,13=1,38=5/2,8;
 8/6=4,10=90,11=11/1;
 11/6=1,8=1,9=11,15=111,16=1,31=1/1,2,10;
 10/6=1,7=6,13=1,31=1/2;
 6/7=2,8=2,9=2,10=2,28=1/1;
 7/10=1,18=20,25=1,30=1/1,2,3,16;
 1/6=1000,10=4,14=-1,18=10,39=1,42=10000,44=3/23(3);
 2/15=1,29=1/2;
 7/9=1,25=1,30=1,44=-1/16;
 99/5=20/99;
 2/15=1,29=1/2;
 3/5=16,7=10,11=2,16=1,25=1,30=1,71=2,74=-5,116=1/1,2,3;
 4/5=5,16=3/1;
 5/5=2,7=1000,8=3,13=1,38=5/2,8;
 8/6=4,10=90,11=11/1;
 11/6=1,8=1,9=11,15=111,16=1,31=1/1,2,10;
 10/6=1,7=6,13=1,31=1/2;
 7/10=1,18=20,25=1,30=1/1,2,3,16;
 1/6=1000,14=-1,18=10,39=1,42=10000,44=3/23(-8);
 2/15=1,29=1/2;
 6/7=2,8=2,9=2,10=2,19=2,28=1/1;
 7/9=1,25=1,30=1,44=-1/16;
 99/5=20,9=1/99;
 ----------------
 3-NO2-C6H3-N2-v2
 ----------------
 Symbolic Z-matrix:
 Charge =  0 Multiplicity = 1
 C                     0.37994   2.17312   0.00007 
 C                     1.58742   1.47482   0.00004 
 C                     1.41669   0.09111   0. 
 C                     0.3432   -0.7121   -0.00002 
 C                    -0.81944   0.06388   0. 
 C                    -0.8361    1.46333   0.00004 
 H                     0.3778    3.2622    0.00011 
 N                     2.78838  -0.72908  -0.00004 
 N                     3.52175  -1.56416  -0.00007 
 H                    -1.78496   1.99615   0.00005 
 N                    -2.15636  -0.62911  -0.00001 
 O                    -3.16048   0.0868   -0.00023 
 O                    -2.1717   -1.84903   0.00021 
 H                     2.55794   1.97097   0.00006 
 
 IRC-IRC-IRC-IRC-IRC-IRC-IRC-IRC-IRC-IRC-IRC-IRC-IRC-IRC-IRC-IRC-IRC-IRC
 ------------------------------------------------------------------------
 INPUT DATA FOR L123
 ------------------------------------------------------------------------
 GENERAL PARAMETERS:
 Follow reaction path in both directions.
 Maximum points per path      =****
 Step size                    =   0.010 bohr
 Integration scheme           = HPC                                 
    Redo corrector integration= Yes                                 
    Max correction cycles     =1000
 Initial Hessian              = CalcFC
 Hessian eveluation           = All updating
    Hessian updating method   = Bofill                              
 ------------------------------------------------------------------------
 IRC-IRC-IRC-IRC-IRC-IRC-IRC-IRC-IRC-IRC-IRC-IRC-IRC-IRC-IRC-IRC-IRC-IRC
                          Input orientation:                          
 ---------------------------------------------------------------------
 Center     Atomic      Atomic             Coordinates (Angstroms)
 Number     Number       Type             X           Y           Z
 ---------------------------------------------------------------------
      1          6           0        0.379940    2.173120    0.000070
      2          6           0        1.587420    1.474820    0.000040
      3          6           0        1.416690    0.091110    0.000000
      4          6           0        0.343200   -0.712100   -0.000020
      5          6           0       -0.819440    0.063880    0.000000
      6          6           0       -0.836100    1.463330    0.000040
      7          1           0        0.377800    3.262200    0.000110
      8          7           0        2.788380   -0.729080   -0.000040
      9          7           0        3.521750   -1.564160   -0.000070
     10          1           0       -1.784960    1.996150    0.000050
     11          7           0       -2.156360   -0.629110   -0.000010
     12          8           0       -3.160480    0.086800   -0.000230
     13          8           0       -2.171700   -1.849030    0.000210
     14          1           0        2.557940    1.970970    0.000060
 ---------------------------------------------------------------------
                    Distance matrix (angstroms):
                    1          2          3          4          5
     1  C    0.000000
     2  C    1.394859   0.000000
     3  C    2.325858   1.394203   0.000000
     4  C    2.885454   2.516089   1.340719   0.000000
     5  C    2.426398   2.789933   2.236296   1.397811   0.000000
     6  C    1.408032   2.423547   2.637812   2.474519   1.399549
     7  H    1.089082   2.158219   3.336930   3.974451   3.415060
     8  N    3.771385   2.509877   1.598201   2.445239   3.693934
     9  N    4.882441   3.602365   2.677909   3.290773   4.636426
    10  H    2.172121   3.412438   3.725552   3.444370   2.160069
    11  N    3.779591   4.294463   3.644915   2.500937   1.505852
    12  O    4.109417   4.946631   4.577172   3.593607   2.341152
    13  O    4.763251   5.017864   4.079300   2.759951   2.342612
    14  H    2.187361   1.089988   2.199165   3.479071   3.878619
                    6          7          8          9         10
     6  C    0.000000
     7  H    2.170135   0.000000
     8  N    4.235979   4.662747   0.000000
     9  N    5.306275   5.760050   1.111391   0.000000
    10  H    1.088224   2.506075   5.323750   6.390382   0.000000
    11  N    2.474145   4.643733   4.945750   5.754585   2.651401
    12  O    2.701403   4.754218   6.004548   6.883158   2.353226
    13  O    3.571492   5.711797   5.084947   5.700572   3.864580
    14  H    3.431793   2.533828   2.709866   3.664161   4.342973
                   11         12         13         14
    11  N    0.000000
    12  O    1.233201   0.000000
    13  O    1.220016   2.173735   0.000000
    14  H    5.383776   6.020832   6.079629   0.000000
 Symmetry turned off by external request.
 Stoichiometry    C6H3N3O2
 Framework group  C1[X(C6H3N3O2)]
 Deg. of freedom    36
 Full point group                 C1      NOp   1
 Rotational constants (GHZ):      2.1501436      0.7579832      0.5604201
 Standard basis: Aug-CC-pVDZ (5D, 7F)
 Integral buffers will be    131072 words long.
 Raffenetti 2 integral format.
 Two-electron integral symmetry is turned off.
   280 basis functions,   506 primitive gaussians,   302 cartesian basis functions
    38 alpha electrons       38 beta electrons
       nuclear repulsion energy       529.3933845644 Hartrees.
 NAtoms=   14 NActive=   14 NUniq=   14 SFac= 1.00D+00 NAtFMM=   50 NAOKFM=F Big=F
 One-electron integrals computed using PRISM.
 NBasis=   280 RedAO= T  NBF=   280
 NBsUse=   280 1.00D-06 NBFU=   280
 Harris functional with IExCor=  402 diagonalized for initial guess.
 ExpMin= 2.97D-02 ExpMax= 1.17D+04 ExpMxC= 4.01D+02 IAcc=3 IRadAn=         0 AccDes= 0.00D+00
 HarFok:  IExCor=  402 AccDes= 0.00D+00 IRadAn=         0 IDoV= 1
 ScaDFX=  1.000000  1.000000  1.000000  1.000000
 FoFCou: FMM=F IPFlag=           0 FMFlag=      100000 FMFlg1=           0
         NFxFlg=           0 DoJE=T BraDBF=F KetDBF=T FulRan=T
         Omega=  0.000000  0.000000  1.000000  0.000000  0.000000 ICntrl=     500 IOpCl=  0
         NMat0=    1 NMatS0=    1 NMatT0=    0 NMatD0=    1 NMtDS0=    0 NMtDT0=    0
         I1Cent=           4 NGrid=           0.
 Symmetry not used in FoFCou.
 Requested convergence on RMS density matrix=1.00D-08 within 128 cycles.
 Requested convergence on MAX density matrix=1.00D-06.
 Requested convergence on             energy=1.00D-06.
 No special actions if energy rises.
 EnCoef did     1 forward-backward iterations
 EnCoef did     2 forward-backward iterations
 SCF Done:  E(RB3LYP) =  -544.978606842     A.U. after   19 cycles
             Convg  =    0.2643D-08             -V/T =  2.0061
 QCSCF skips out because SCF is already converged.
 Range of M.O.s used for correlation:     1   280
 NBasis=   280 NAE=    38 NBE=    38 NFC=     0 NFV=     0
 NROrb=    280 NOA=    38 NOB=    38 NVA=   242 NVB=   242

 **** Warning!!: The largest alpha MO coefficient is  0.95786321D+02

 Symmetrizing basis deriv contribution to polar:
 IMax=3 JMax=2 DiffMx= 0.00D+00
 G2DrvN: will do    15 centers at a time, making    1 passes doing MaxLOS=2.
 Calling FoFCou, ICntrl=  3107 FMM=F I1Cent=   0 AccDes= 0.00D+00.
 FoFDir/FoFCou used for L=0 through L=2.
 End of G2Drv Frequency-dependent properties file   721 does not exist.
 End of G2Drv Frequency-dependent properties file   722 does not exist.
          IDoAtm=11111111111111
          Differentiating once with respect to nuclear coordinates.
          There are    45 degrees of freedom in the 1st order CPHF.  IDoFFX=5.
     39 vectors produced by pass  0 Test12= 2.04D-10 2.22D-07 XBig12= 6.52D-01 2.43D-01.
 AX will form    39 AO Fock derivatives at one time.
     39 vectors produced by pass  1 Test12= 2.04D-10 2.22D-07 XBig12= 3.60D-01 1.81D-01.
     39 vectors produced by pass  2 Test12= 2.04D-10 2.22D-07 XBig12= 5.28D-03 1.52D-02.
     39 vectors produced by pass  3 Test12= 2.04D-10 2.22D-07 XBig12= 6.56D-05 1.26D-03.
     39 vectors produced by pass  4 Test12= 2.04D-10 2.22D-07 XBig12= 3.22D-07 1.08D-04.
     21 vectors produced by pass  5 Test12= 2.04D-10 2.22D-07 XBig12= 5.41D-10 4.44D-06.
 Inverted reduced A of dimension   216 with in-core refinement.
 End of Minotr Frequency-dependent properties file   721 does not exist.
 End of Minotr Frequency-dependent properties file   722 does not exist.

 **********************************************************************

            Population analysis using the SCF density.

 **********************************************************************

 Alpha  occ. eigenvalues --  -19.17587 -19.17335 -14.55764 -14.54181 -14.51761
 Alpha  occ. eigenvalues --  -10.29341 -10.26061 -10.25161 -10.23425 -10.23347
 Alpha  occ. eigenvalues --  -10.19200  -1.22318  -1.20559  -1.05117  -0.91721
 Alpha  occ. eigenvalues --   -0.83291  -0.80467  -0.71463  -0.71008  -0.62731
 Alpha  occ. eigenvalues --   -0.58081  -0.55750  -0.54930  -0.54131  -0.52671
 Alpha  occ. eigenvalues --   -0.52532  -0.51212  -0.51037  -0.47788  -0.43466
 Alpha  occ. eigenvalues --   -0.41618  -0.41263  -0.31173  -0.30711  -0.30385
 Alpha  occ. eigenvalues --   -0.29151  -0.29060  -0.23905
 Alpha virt. eigenvalues --   -0.12253  -0.12029  -0.09022  -0.03044  -0.02800
 Alpha virt. eigenvalues --   -0.01297  -0.00196   0.01072   0.01777   0.03257
 Alpha virt. eigenvalues --    0.03471   0.04278   0.05378   0.06171   0.06890
 Alpha virt. eigenvalues --    0.07487   0.07704   0.07835   0.08851   0.09080
 Alpha virt. eigenvalues --    0.10465   0.10636   0.11191   0.11871   0.12042
 Alpha virt. eigenvalues --    0.12117   0.12554   0.13632   0.13838   0.15615
 Alpha virt. eigenvalues --    0.15885   0.16639   0.17063   0.17628   0.18207
 Alpha virt. eigenvalues --    0.18342   0.19094   0.20388   0.20758   0.21343
 Alpha virt. eigenvalues --    0.21667   0.22424   0.22708   0.23164   0.23546
 Alpha virt. eigenvalues --    0.25310   0.25569   0.26066   0.26729   0.26842
 Alpha virt. eigenvalues --    0.27047   0.27378   0.29133   0.29152   0.29542
 Alpha virt. eigenvalues --    0.30363   0.30895   0.31237   0.32682   0.32746
 Alpha virt. eigenvalues --    0.34089   0.34587   0.35924   0.36447   0.38105
 Alpha virt. eigenvalues --    0.38677   0.39784   0.40152   0.42325   0.43836
 Alpha virt. eigenvalues --    0.44155   0.44981   0.45679   0.46871   0.47629
 Alpha virt. eigenvalues --    0.48494   0.48661   0.50461   0.50540   0.51133
 Alpha virt. eigenvalues --    0.53221   0.53356   0.54131   0.55001   0.55455
 Alpha virt. eigenvalues --    0.56260   0.57994   0.58623   0.60044   0.60750
 Alpha virt. eigenvalues --    0.61039   0.61208   0.61957   0.64426   0.66490
 Alpha virt. eigenvalues --    0.66865   0.68554   0.68575   0.69821   0.69990
 Alpha virt. eigenvalues --    0.71392   0.71985   0.72010   0.73096   0.73575
 Alpha virt. eigenvalues --    0.73585   0.74236   0.75620   0.76968   0.76972
 Alpha virt. eigenvalues --    0.78779   0.78888   0.80172   0.82318   0.83579
 Alpha virt. eigenvalues --    0.84067   0.84319   0.87070   0.87681   0.87813
 Alpha virt. eigenvalues --    0.88129   0.91131   0.93685   0.95178   0.96701
 Alpha virt. eigenvalues --    1.00855   1.01258   1.03413   1.06647   1.06957
 Alpha virt. eigenvalues --    1.07284   1.08241   1.08784   1.09503   1.09794
 Alpha virt. eigenvalues --    1.11684   1.15755   1.16904   1.18494   1.19409
 Alpha virt. eigenvalues --    1.21541   1.22449   1.24315   1.26336   1.26848
 Alpha virt. eigenvalues --    1.28334   1.29953   1.32587   1.33031   1.33788
 Alpha virt. eigenvalues --    1.34585   1.36362   1.36761   1.38638   1.38945
 Alpha virt. eigenvalues --    1.40289   1.41041   1.41935   1.44462   1.44980
 Alpha virt. eigenvalues --    1.47177   1.50699   1.50703   1.52161   1.54980
 Alpha virt. eigenvalues --    1.56636   1.58880   1.59553   1.61079   1.64074
 Alpha virt. eigenvalues --    1.64916   1.64920   1.68376   1.68392   1.70323
 Alpha virt. eigenvalues --    1.73149   1.75115   1.75914   1.79322   1.82120
 Alpha virt. eigenvalues --    1.83097   1.85551   1.87912   1.90411   1.91367
 Alpha virt. eigenvalues --    1.91594   1.94432   1.96952   1.98219   1.99620
 Alpha virt. eigenvalues --    2.00116   2.00896   2.01936   2.05980   2.07549
 Alpha virt. eigenvalues --    2.12160   2.12644   2.18019   2.19093   2.19624
 Alpha virt. eigenvalues --    2.20184   2.23537   2.25975   2.27856   2.29735
 Alpha virt. eigenvalues --    2.32891   2.34076   2.34937   2.36807   2.42133
 Alpha virt. eigenvalues --    2.45843   2.47895   2.48664   2.55113   2.60580
 Alpha virt. eigenvalues --    2.66941   2.73175   2.75685   2.80673   2.81669
 Alpha virt. eigenvalues --    2.85146   2.92778   2.94776   2.99040   3.05109
 Alpha virt. eigenvalues --    3.09852   3.13358   3.29467   3.30015   3.30634
 Alpha virt. eigenvalues --    3.35237   3.38313   3.40409   3.40999   3.46827
 Alpha virt. eigenvalues --    3.55673   3.59012   3.61667   3.78785   3.82731
 Alpha virt. eigenvalues --    3.84763   4.12880
          Condensed to atoms (all electrons):
              1          2          3          4          5          6
     1  C   12.948835  -2.492754   0.693925  -2.012085   0.533703  -3.534793
     2  C   -2.492754  14.893009  -4.864333  -0.185188  -1.951524   1.077207
     3  C    0.693925  -4.864333  11.090058  -0.399567   0.383167  -2.092536
     4  C   -2.012085  -0.185188  -0.399567  11.096005  -1.152623   0.035415
     5  C    0.533703  -1.951524   0.383167  -1.152623  10.218545  -3.270996
     6  C   -3.534793   1.077207  -2.092536   0.035415  -3.270996  13.730894
     7  H   -1.770809   0.466487  -0.512299   0.142296  -0.134867   1.246679
     8  N   -0.192644   0.230262   0.098494  -0.164889   0.052038  -0.041305
     9  N    0.025039  -0.095245  -0.382055   0.045249   0.035860  -0.065801
    10  H    0.852551  -0.106468  -0.006177  -0.189196   0.728864  -1.999534
    11  N   -0.331018   0.188839  -0.207313   0.102900  -0.552907   0.276975
    12  O   -0.040117  -0.028320   0.031146  -0.085822   0.209597   0.000267
    13  O   -0.013012  -0.022489   0.037501  -0.042818   0.171647  -0.066110
    14  H    0.478607  -2.084815   1.326027  -0.010062   0.029691  -0.321162
              7          8          9         10         11         12
     1  C   -1.770809  -0.192644   0.025039   0.852551  -0.331018  -0.040117
     2  C    0.466487   0.230262  -0.095245  -0.106468   0.188839  -0.028320
     3  C   -0.512299   0.098494  -0.382055  -0.006177  -0.207313   0.031146
     4  C    0.142296  -0.164889   0.045249  -0.189196   0.102900  -0.085822
     5  C   -0.134867   0.052038   0.035860   0.728864  -0.552907   0.209597
     6  C    1.246679  -0.041305  -0.065801  -1.999534   0.276975   0.000267
     7  H    2.649712  -0.008895  -0.000282  -0.213048   0.013417   0.000063
     8  N   -0.008895   8.012176  -1.334397   0.010231  -0.002428  -0.001110
     9  N   -0.000282  -1.334397   9.504657  -0.000370  -0.000507  -0.000112
    10  H   -0.213048   0.010231  -0.000370   2.921181  -0.142077  -0.020515
    11  N    0.013417  -0.002428  -0.000507  -0.142077   7.971043  -0.501641
    12  O    0.000063  -0.001110  -0.000112  -0.020515  -0.501641   9.192694
    13  O   -0.000245  -0.001562   0.000175  -0.010379  -0.502332  -0.046032
    14  H   -0.176092  -0.143829  -0.025102  -0.005690   0.001959  -0.000589
             13         14
     1  C   -0.013012   0.478607
     2  C   -0.022489  -2.084815
     3  C    0.037501   1.326027
     4  C   -0.042818  -0.010062
     5  C    0.171647   0.029691
     6  C   -0.066110  -0.321162
     7  H   -0.000245  -0.176092
     8  N   -0.001562  -0.143829
     9  N    0.000175  -0.025102
    10  H   -0.010379  -0.005690
    11  N   -0.502332   0.001959
    12  O   -0.046032  -0.000589
    13  O    9.150699  -0.000002
    14  H   -0.000002   2.689714
 Mulliken atomic charges:
              1
     1  C    0.854571
     2  C    0.975332
     3  C    0.803962
     4  C   -1.179617
     5  C    0.699806
     6  C    1.024799
     7  H   -0.702115
     8  N    0.487858
     9  N   -0.707110
    10  H   -0.819372
    11  N    0.685090
    12  O   -0.709507
    13  O   -0.655041
    14  H   -0.758656
 Sum of Mulliken atomic charges =   0.00000
 Mulliken charges with hydrogens summed into heavy atoms:
              1
     1  C    0.152456
     2  C    0.216676
     3  C    0.803962
     4  C   -1.179617
     5  C    0.699806
     6  C    0.205426
     8  N    0.487858
     9  N   -0.707110
    11  N    0.685090
    12  O   -0.709507
    13  O   -0.655041
 Sum of Mulliken charges with hydrogens summed into heavy atoms =   0.00000
 APT atomic charges:
              1
     1  C    0.285277
     2  C    0.009093
     3  C    0.342368
     4  C    0.206962
     5  C   -0.031066
     6  C    0.400137
     7  H   -0.096146
     8  N   -1.334677
     9  N    1.106835
    10  H   -0.214811
    11  N    0.642546
    12  O   -0.563858
    13  O   -0.498428
    14  H   -0.254233
 Sum of APT charges=   0.00000
 APT Atomic charges with hydrogens summed into heavy atoms:
              1
     1  C    0.189131
     2  C   -0.245140
     3  C    0.342368
     4  C    0.206962
     5  C   -0.031066
     6  C    0.185326
     7  H    0.000000
     8  N   -1.334677
     9  N    1.106835
    10  H    0.000000
    11  N    0.642546
    12  O   -0.563858
    13  O   -0.498428
    14  H    0.000000
 Sum of APT charges=   0.00000
 Electronic spatial extent (au):  <R**2>=           1798.9068
 Charge=              0.0000 electrons
 Dipole moment (field-independent basis, Debye):
    X=              6.8567    Y=              4.0903    Z=              0.0001  Tot=              7.9840
 Quadrupole moment (field-independent basis, Debye-Ang):
   XX=            -62.1736   YY=            -61.4571   ZZ=            -61.7356
   XY=             -3.8039   XZ=             -0.0006   YZ=              0.0010
 Traceless Quadrupole moment (field-independent basis, Debye-Ang):
   XX=             -0.3848   YY=              0.3317   ZZ=              0.0532
   XY=             -3.8039   XZ=             -0.0006   YZ=              0.0010
 Octapole moment (field-independent basis, Debye-Ang**2):
  XXX=             66.2035  YYY=             20.4513  ZZZ=             -0.0005  XYY=              7.0718
  XXY=              7.9432  XXZ=              0.0025  XZZ=             -5.4022  YZZ=             -7.2821
  YYZ=             -0.0004  XYZ=             -0.0016
 Hexadecapole moment (field-independent basis, Debye-Ang**3):
 XXXX=          -1647.4325 YYYY=           -632.6857 ZZZZ=            -64.4765 XXXY=            -10.9535
 XXXZ=             -0.0098 YYYX=            -10.6818 YYYZ=              0.0031 ZZZX=             -0.0009
 ZZZY=             -0.0016 XXYY=           -377.1689 XXZZ=           -265.3481 YYZZ=           -127.7366
 XXYZ=              0.0037 YYXZ=              0.0031 ZZXY=             -1.2397
 N-N= 5.293933845644D+02 E-N=-2.330372980592D+03  KE= 5.416982237391D+02
  Exact polarizability:   0.000   0.000   0.000   0.000   0.000   0.000
 Approx polarizability: 274.834 -28.968 225.030   0.003  -0.005  88.097
 Calling FoFJK, ICntrl=    100147 FMM=F ISym2X=0 I1Cent= 0 IOpClX= 0 NMat=1 NMatS=1 NMatT=0.
 -------------------------------------------------------------------
 Center     Atomic                   Forces (Hartrees/Bohr)
 Number     Number              X              Y              Z
 -------------------------------------------------------------------
      1        6          -0.000003415    0.000003866   -0.000000667
      2        6          -0.000005116   -0.000004207    0.000001181
      3        6           0.000004544    0.000002616   -0.000000850
      4        6          -0.000003297   -0.000000856    0.000000105
      5        6          -0.000002907    0.000000729    0.000000459
      6        6           0.000005918    0.000001258   -0.000000079
      7        1           0.000001731   -0.000004245   -0.000000002
      8        7           0.000004706   -0.000005771    0.000000124
      9        7          -0.000006253    0.000002510    0.000000000
     10        1           0.000000094    0.000001008   -0.000000063
     11        7           0.000008855   -0.000003487    0.000000482
     12        8          -0.000008466    0.000007615    0.000000006
     13        8          -0.000001190   -0.000001228   -0.000000471
     14        1           0.000004796    0.000000192   -0.000000225
 -------------------------------------------------------------------
 Cartesian Forces:  Max     0.000008855 RMS     0.000003544
 IRC-IRC-IRC-IRC-IRC-IRC-IRC-IRC-IRC-IRC-IRC-IRC-IRC-IRC-IRC-IRC-IRC-IRC
          ******** Start new reaction path calculation ********
 Supplied step size of   0.0100 bohr.
    Integration on MW PES will use step size of   0.0361 sqrt(amu)*bohr.
 Point Number:   0          Path Number:   1
 Calculating another point on the path.
 IRC-IRC-IRC-IRC-IRC-IRC-IRC-IRC-IRC-IRC-IRC-IRC-IRC-IRC-IRC-IRC-IRC-IRC
                          Input orientation:                          
 ---------------------------------------------------------------------
 Center     Atomic      Atomic             Coordinates (Angstroms)
 Number     Number       Type             X           Y           Z
 ---------------------------------------------------------------------
      1          6           0        0.387862    2.221001    0.000071
      2          6           0        1.595172    1.522829    0.000041
      3          6           0        1.426475    0.138176    0.000001
      4          6           0        0.350906   -0.664861   -0.000019
      5          6           0       -0.811397    0.111878    0.000001
      6          6           0       -0.828319    1.511175    0.000041
      7          1           0        0.385649    3.310073    0.000111
      8          7           0        2.792199   -0.680808   -0.000038
      9          7           0        3.528196   -1.513908   -0.000068
     10          1           0       -1.777181    2.044046    0.000051
     11          7           0       -2.148741   -0.581006   -0.000009
     12          8           0       -3.152822    0.135027   -0.000229
     13          8           0       -2.164332   -1.800881    0.000212
     14          1           0        2.565393    2.019646    0.000062
 ---------------------------------------------------------------------
                    Distance matrix (angstroms):
                    1          2          3          4          5
     1  C    0.000000
     2  C    1.394648   0.000000
     3  C    2.327419   1.394892   0.000000
     4  C    2.886099   2.516781   1.342280   0.000000
     5  C    2.426237   2.789688   2.238026   1.397953   0.000000
     6  C    1.408173   2.423519   2.639928   2.475016   1.399399
     7  H    1.089074   2.158052   3.338300   3.975086   3.414875
     8  N    3.768466   2.507767   1.592463   2.441345   3.689750
     9  N    4.879677   3.599772   2.673315   3.288777   4.634140
    10  H    2.172262   3.412394   3.727700   3.444842   2.160096
    11  N    3.779630   4.294533   3.646833   2.501054   1.506180
    12  O    4.109469   4.946660   4.579298   3.593874   2.341539
    13  O    4.763322   5.018059   4.080911   2.759885   2.342878
    14  H    2.186821   1.090026   2.199333   3.480019   3.878440
                    6          7          8          9         10
     6  C    0.000000
     7  H    2.170197   0.000000
     8  N    4.232368   4.660324   0.000000
     9  N    5.303805   5.757291   1.111641   0.000000
    10  H    1.088251   2.506124   5.320157   6.387963   0.000000
    11  N    2.474012   4.643666   4.941948   5.753080   2.651218
    12  O    2.701314   4.754124   6.000739   6.881496   2.353028
    13  O    3.571365   5.711765   5.081512   5.699757   3.864370
    14  H    3.431592   2.533078   2.709963   3.662376   4.342642
                   11         12         13         14
    11  N    0.000000
    12  O    1.233240   0.000000
    13  O    1.219974   2.173673   0.000000
    14  H    5.383907   6.020778   6.080027   0.000000
 Symmetry turned off by external request.
 Stoichiometry    C6H3N3O2
 Framework group  C1[X(C6H3N3O2)]
 Deg. of freedom    36
 Full point group                 C1      NOp   1
 Rotational constants (GHZ):      2.1511410      0.7583608      0.5606943
 Standard basis: Aug-CC-pVDZ (5D, 7F)
 Integral buffers will be    131072 words long.
 Raffenetti 2 integral format.
 Two-electron integral symmetry is turned off.
   280 basis functions,   506 primitive gaussians,   302 cartesian basis functions
    38 alpha electrons       38 beta electrons
       nuclear repulsion energy       529.4624396736 Hartrees.
 NAtoms=   14 NActive=   14 NUniq=   14 SFac= 1.00D+00 NAtFMM=   50 NAOKFM=F Big=F
 One-electron integrals computed using PRISM.
 NBasis=   280 RedAO= T  NBF=   280
 NBsUse=   280 1.00D-06 NBFU=   280
 Initial guess read from the read-write file.
 B after Tr=     0.000000    0.000000    0.000000
         Rot=    1.000000    0.000000    0.000000    0.000000 Ang=   0.00 deg.
 Harris functional with IExCor=  402 diagonalized for initial guess.
 ExpMin= 2.97D-02 ExpMax= 1.17D+04 ExpMxC= 4.01D+02 IAcc=3 IRadAn=         0 AccDes= 0.00D+00
 HarFok:  IExCor=  402 AccDes= 0.00D+00 IRadAn=         0 IDoV= 1
 ScaDFX=  1.000000  1.000000  1.000000  1.000000
 FoFCou: FMM=F IPFlag=           0 FMFlag=      100000 FMFlg1=           0
         NFxFlg=           0 DoJE=T BraDBF=F KetDBF=T FulRan=T
         Omega=  0.000000  0.000000  1.000000  0.000000  0.000000 ICntrl=     500 IOpCl=  0
         NMat0=    1 NMatS0=    1 NMatT0=    0 NMatD0=    1 NMtDS0=    0 NMtDT0=    0
         I1Cent=           4 NGrid=           0.
 Symmetry not used in FoFCou.
 Requested convergence on RMS density matrix=1.00D-08 within 128 cycles.
 Requested convergence on MAX density matrix=1.00D-06.
 Requested convergence on             energy=1.00D-06.
 No special actions if energy rises.
 SCF Done:  E(RB3LYP) =  -544.978611029     A.U. after   12 cycles
             Convg  =    0.7726D-08             -V/T =  2.0061
 QCSCF skips out because SCF is already converged.
 Range of M.O.s used for correlation:     1   280
 NBasis=   280 NAE=    38 NBE=    38 NFC=     0 NFV=     0
 NROrb=    280 NOA=    38 NOB=    38 NVA=   242 NVB=   242

 **** Warning!!: The largest alpha MO coefficient is  0.95623360D+02

 Symmetrizing basis deriv contribution to polar:
 IMax=3 JMax=2 DiffMx= 0.00D+00
 Calling FoFJK, ICntrl=      2147 FMM=F ISym2X=0 I1Cent= 0 IOpClX= 0 NMat=1 NMatS=1 NMatT=0.
 -------------------------------------------------------------------
 Center     Atomic                   Forces (Hartrees/Bohr)
 Number     Number              X              Y              Z
 -------------------------------------------------------------------
      1        6           0.000070277   -0.000051348   -0.000000666
      2        6           0.000063638   -0.000028443    0.000001181
      3        6           0.000359005   -0.000151198   -0.000000863
      4        6           0.000038441   -0.000123147    0.000000094
      5        6           0.000123870   -0.000036009    0.000000457
      6        6           0.000018185   -0.000045378   -0.000000081
      7        1           0.000013550    0.000007292   -0.000000001
      8        7          -0.000615201    0.000003953    0.000000132
      9        7          -0.000182730    0.000411841    0.000000015
     10        1          -0.000007135    0.000004080   -0.000000063
     11        7           0.000092371   -0.000003756    0.000000480
     12        8           0.000042405    0.000012161    0.000000006
     13        8          -0.000021604   -0.000001315   -0.000000464
     14        1           0.000004928    0.000001267   -0.000000225
 -------------------------------------------------------------------
 Cartesian Forces:  Max     0.000615201 RMS     0.000137377
 IRC-IRC-IRC-IRC-IRC-IRC-IRC-IRC-IRC-IRC-IRC-IRC-IRC-IRC-IRC-IRC-IRC-IRC
 Pt  1 Step number   1 out of a maximum of1000
 CORRECTOR INTEGRATION CONVERGENCE:
   Recorrection delta-x convergence threshold:    0.010000
   Delta-x Convergence Met
 Point Number:   1          Path Number:   1
   CHANGE IN THE REACTION COORDINATE =    0.03606
   NET REACTION COORDINATE UP TO THIS POINT =    0.03606
  # OF POINTS ALONG THE PATH =   1
  # OF STEPS =   1

 Calculating another point on the path.
 IRC-IRC-IRC-IRC-IRC-IRC-IRC-IRC-IRC-IRC-IRC-IRC-IRC-IRC-IRC-IRC-IRC-IRC
                          Input orientation:                          
 ---------------------------------------------------------------------
 Center     Atomic      Atomic             Coordinates (Angstroms)
 Number     Number       Type             X           Y           Z
 ---------------------------------------------------------------------
      1          6           0        0.388335    2.220722    0.000069
      2          6           0        1.595520    1.522681    0.000044
      3          6           0        1.428837    0.137129   -0.000001
      4          6           0        0.351214   -0.665726   -0.000018
      5          6           0       -0.810716    0.111733    0.000004
      6          6           0       -0.828063    1.510906    0.000040
      7          1           0        0.386215    3.309825    0.000108
      8          7           0        2.788632   -0.680658   -0.000038
      9          7           0        3.527293   -1.511711   -0.000068
     10          1           0       -1.776956    2.043834    0.000048
     11          7           0       -2.148421   -0.581051   -0.000007
     12          8           0       -3.152515    0.135079   -0.000228
     13          8           0       -2.164380   -1.800883    0.000209
     14          1           0        2.565479    2.020086    0.000060
 ---------------------------------------------------------------------
                    Distance matrix (angstroms):
                    1          2          3          4          5
     1  C    0.000000
     2  C    1.394474   0.000000
     3  C    2.328949   1.395542   0.000000
     4  C    2.886687   2.517424   1.343819   0.000000
     5  C    2.426016   2.789399   2.239696   1.398043   0.000000
     6  C    1.408354   2.423612   2.642131   2.475565   1.399280
     7  H    1.089105   2.157847   3.339620   3.975705   3.414738
     8  N    3.765559   2.505637   1.586764   2.437464   3.685538
     9  N    4.876896   3.597122   2.668744   3.286818   4.631835
    10  H    2.172504   3.412506   3.729964   3.445406   2.160240
    11  N    3.779558   4.294507   3.648638   2.501069   1.506455
    12  O    4.109443   4.946643   4.581352   3.594079   2.341915
    13  O    4.763366   5.018259   4.082536   2.759854   2.343183
    14  H    2.186370   1.090061   2.199428   3.480885   3.878209
                    6          7          8          9         10
     6  C    0.000000
     7  H    2.170387   0.000000
     8  N    4.228881   4.657849   0.000000
     9  N    5.301447   5.754441   1.111877   0.000000
    10  H    1.088307   2.506400   5.316714   6.385684   0.000000
    11  N    2.473788   4.643629   4.938058   5.751510   2.651039
    12  O    2.701107   4.754116   5.996887   6.879807   2.352766
    13  O    3.571231   5.711818   5.078113   5.699014   3.864187
    14  H    3.431529   2.532315   2.709947   3.660420   4.342501
                   11         12         13         14
    11  N    0.000000
    12  O    1.233307   0.000000
    13  O    1.219936   2.173559   0.000000
    14  H    5.383936   6.020690   6.080409   0.000000
 Symmetry turned off by external request.
 Stoichiometry    C6H3N3O2
 Framework group  C1[X(C6H3N3O2)]
 Deg. of freedom    36
 Full point group                 C1      NOp   1
 Rotational constants (GHZ):      2.1521826      0.7587410      0.5609729
 Standard basis: Aug-CC-pVDZ (5D, 7F)
 Integral buffers will be    131072 words long.
 Raffenetti 2 integral format.
 Two-electron integral symmetry is turned off.
   280 basis functions,   506 primitive gaussians,   302 cartesian basis functions
    38 alpha electrons       38 beta electrons
       nuclear repulsion energy       529.5337884659 Hartrees.
 NAtoms=   14 NActive=   14 NUniq=   14 SFac= 1.00D+00 NAtFMM=   50 NAOKFM=F Big=F
 One-electron integrals computed using PRISM.
 NBasis=   280 RedAO= T  NBF=   280
 NBsUse=   280 1.00D-06 NBFU=   280
 Initial guess read from the read-write file.
 B after Tr=     0.000000    0.000000    0.000000
         Rot=    1.000000    0.000000    0.000000    0.000000 Ang=   0.00 deg.
 Harris functional with IExCor=  402 diagonalized for initial guess.
 ExpMin= 2.97D-02 ExpMax= 1.17D+04 ExpMxC= 4.01D+02 IAcc=3 IRadAn=         0 AccDes= 0.00D+00
 HarFok:  IExCor=  402 AccDes= 0.00D+00 IRadAn=         0 IDoV= 1
 ScaDFX=  1.000000  1.000000  1.000000  1.000000
 FoFCou: FMM=F IPFlag=           0 FMFlag=      100000 FMFlg1=           0
         NFxFlg=           0 DoJE=T BraDBF=F KetDBF=T FulRan=T
         Omega=  0.000000  0.000000  1.000000  0.000000  0.000000 ICntrl=     500 IOpCl=  0
         NMat0=    1 NMatS0=    1 NMatT0=    0 NMatD0=    1 NMtDS0=    0 NMtDT0=    0
         I1Cent=           4 NGrid=           0.
 Symmetry not used in FoFCou.
 Requested convergence on RMS density matrix=1.00D-08 within 128 cycles.
 Requested convergence on MAX density matrix=1.00D-06.
 Requested convergence on             energy=1.00D-06.
 No special actions if energy rises.
 SCF Done:  E(RB3LYP) =  -544.978623459     A.U. after   12 cycles
             Convg  =    0.7576D-08             -V/T =  2.0061
 QCSCF skips out because SCF is already converged.
 Range of M.O.s used for correlation:     1   280
 NBasis=   280 NAE=    38 NBE=    38 NFC=     0 NFV=     0
 NROrb=    280 NOA=    38 NOB=    38 NVA=   242 NVB=   242

 **** Warning!!: The largest alpha MO coefficient is  0.95469498D+02

 Symmetrizing basis deriv contribution to polar:
 IMax=3 JMax=2 DiffMx= 0.00D+00
 Calling FoFJK, ICntrl=      2147 FMM=F ISym2X=0 I1Cent= 0 IOpClX= 0 NMat=1 NMatS=1 NMatT=0.
 -------------------------------------------------------------------
 Center     Atomic                   Forces (Hartrees/Bohr)
 Number     Number              X              Y              Z
 -------------------------------------------------------------------
      1        6           0.000157265   -0.000064445   -0.000000132
      2        6           0.000087745   -0.000023662    0.000000038
      3        6           0.000714571   -0.000308509   -0.000000018
      4        6           0.000078518   -0.000283918    0.000000056
      5        6           0.000161599   -0.000026811    0.000000113
      6        6           0.000142803   -0.000089304   -0.000000104
      7        1           0.000005159   -0.000019668   -0.000000020
      8        7          -0.001213340    0.000034862    0.000000040
      9        7          -0.000337258    0.000759427    0.000000028
     10        1           0.000018994   -0.000013519   -0.000000020
     11        7           0.000055294   -0.000022094    0.000000071
     12        8           0.000120357    0.000036474    0.000000197
     13        8           0.000008611    0.000002173   -0.000000263
     14        1          -0.000000317    0.000018991    0.000000014
 -------------------------------------------------------------------
 Cartesian Forces:  Max     0.001213340 RMS     0.000265901
 IRC-IRC-IRC-IRC-IRC-IRC-IRC-IRC-IRC-IRC-IRC-IRC-IRC-IRC-IRC-IRC-IRC-IRC
 Pt  2 Step number   1 out of a maximum of1000
 CORRECTOR INTEGRATION CONVERGENCE:
   Recorrection delta-x convergence threshold:    0.010000
   Delta-x Convergence Met
 Point Number:   2          Path Number:   1
   CHANGE IN THE REACTION COORDINATE =    0.03606
   NET REACTION COORDINATE UP TO THIS POINT =    0.07212
  # OF POINTS ALONG THE PATH =   2
  # OF STEPS =   1

 Calculating another point on the path.
 IRC-IRC-IRC-IRC-IRC-IRC-IRC-IRC-IRC-IRC-IRC-IRC-IRC-IRC-IRC-IRC-IRC-IRC
                          Input orientation:                          
 ---------------------------------------------------------------------
 Center     Atomic      Atomic             Coordinates (Angstroms)
 Number     Number       Type             X           Y           Z
 ---------------------------------------------------------------------
      1          6           0        0.388864    2.220480    0.000069
      2          6           0        1.595863    1.522591    0.000044
      3          6           0        1.431213    0.136080   -0.000001
      4          6           0        0.351500   -0.666648   -0.000018
      5          6           0       -0.810103    0.111590    0.000004
      6          6           0       -0.827630    1.510589    0.000040
      7          1           0        0.386585    3.309556    0.000107
      8          7           0        2.785069   -0.680505   -0.000038
      9          7           0        3.526346   -1.509554   -0.000068
     10          1           0       -1.776517    2.043555    0.000047
     11          7           0       -2.148215   -0.581098   -0.000007
     12          8           0       -3.152249    0.135166   -0.000227
     13          8           0       -2.164367   -1.800883    0.000209
     14          1           0        2.565501    2.020704    0.000061
 ---------------------------------------------------------------------
                    Distance matrix (angstroms):
                    1          2          3          4          5
     1  C    0.000000
     2  C    1.394237   0.000000
     3  C    2.330497   1.396253   0.000000
     4  C    2.887369   2.518175   1.345419   0.000000
     5  C    2.425889   2.789192   2.241449   1.398204   0.000000
     6  C    1.408475   2.423523   2.644172   2.476026   1.399109
     7  H    1.089078   2.157683   3.340987   3.976358   3.414535
     8  N    3.762647   2.503566   1.581056   2.433609   3.681396
     9  N    4.874110   3.594533   2.664150   3.284835   4.629568
    10  H    2.172597   3.412382   3.732022   3.445817   2.160195
    11  N    3.779631   4.294604   3.650568   2.501178   1.506772
    12  O    4.109503   4.946667   4.583462   3.594323   2.342265
    13  O    4.763439   5.018447   4.084118   2.759724   2.343414
    14  H    2.185786   1.090098   2.199641   3.481905   3.878069
                    6          7          8          9         10
     6  C    0.000000
     7  H    2.170392   0.000000
     8  N    4.225221   4.655460   0.000000
     9  N    5.298903   5.751689   1.112122   0.000000
    10  H    1.088319   2.506346   5.313057   6.383177   0.000000
    11  N    2.473681   4.643533   4.934286   5.750015   2.650842
    12  O    2.701045   4.753957   5.993085   6.878135   2.352571
    13  O    3.571094   5.711738   5.074660   5.698166   3.863953
    14  H    3.431261   2.531563   2.710118   3.658681   4.342078
                   11         12         13         14
    11  N    0.000000
    12  O    1.233336   0.000000
    13  O    1.219892   2.173521   0.000000
    14  H    5.384096   6.020625   6.080804   0.000000
 Symmetry turned off by external request.
 Stoichiometry    C6H3N3O2
 Framework group  C1[X(C6H3N3O2)]
 Deg. of freedom    36
 Full point group                 C1      NOp   1
 Rotational constants (GHZ):      2.1531756      0.7591208      0.5612479
 Standard basis: Aug-CC-pVDZ (5D, 7F)
 Integral buffers will be    131072 words long.
 Raffenetti 2 integral format.
 Two-electron integral symmetry is turned off.
   280 basis functions,   506 primitive gaussians,   302 cartesian basis functions
    38 alpha electrons       38 beta electrons
       nuclear repulsion energy       529.6043557202 Hartrees.
 NAtoms=   14 NActive=   14 NUniq=   14 SFac= 1.00D+00 NAtFMM=   50 NAOKFM=F Big=F
 One-electron integrals computed using PRISM.
 NBasis=   280 RedAO= T  NBF=   280
 NBsUse=   280 1.00D-06 NBFU=   280
 Initial guess read from the read-write file.
 B after Tr=     0.000000    0.000000    0.000000
         Rot=    1.000000    0.000000    0.000000    0.000000 Ang=   0.00 deg.
 Harris functional with IExCor=  402 diagonalized for initial guess.
 ExpMin= 2.97D-02 ExpMax= 1.17D+04 ExpMxC= 4.01D+02 IAcc=3 IRadAn=         0 AccDes= 0.00D+00
 HarFok:  IExCor=  402 AccDes= 0.00D+00 IRadAn=         0 IDoV= 1
 ScaDFX=  1.000000  1.000000  1.000000  1.000000
 FoFCou: FMM=F IPFlag=           0 FMFlag=      100000 FMFlg1=           0
         NFxFlg=           0 DoJE=T BraDBF=F KetDBF=T FulRan=T
         Omega=  0.000000  0.000000  1.000000  0.000000  0.000000 ICntrl=     500 IOpCl=  0
         NMat0=    1 NMatS0=    1 NMatT0=    0 NMatD0=    1 NMtDS0=    0 NMtDT0=    0
         I1Cent=           4 NGrid=           0.
 Symmetry not used in FoFCou.
 Requested convergence on RMS density matrix=1.00D-08 within 128 cycles.
 Requested convergence on MAX density matrix=1.00D-06.
 Requested convergence on             energy=1.00D-06.
 No special actions if energy rises.
 SCF Done:  E(RB3LYP) =  -544.978644075     A.U. after   12 cycles
             Convg  =    0.8380D-08             -V/T =  2.0061
 QCSCF skips out because SCF is already converged.
 Range of M.O.s used for correlation:     1   280
 NBasis=   280 NAE=    38 NBE=    38 NFC=     0 NFV=     0
 NROrb=    280 NOA=    38 NOB=    38 NVA=   242 NVB=   242

 **** Warning!!: The largest alpha MO coefficient is  0.95265236D+02

 Symmetrizing basis deriv contribution to polar:
 IMax=3 JMax=2 DiffMx= 0.00D+00
 Calling FoFJK, ICntrl=      2147 FMM=F ISym2X=0 I1Cent= 0 IOpClX= 0 NMat=1 NMatS=1 NMatT=0.
 -------------------------------------------------------------------
 Center     Atomic                   Forces (Hartrees/Bohr)
 Number     Number              X              Y              Z
 -------------------------------------------------------------------
      1        6           0.000231340   -0.000106368   -0.000000115
      2        6           0.000158400   -0.000045421    0.000000018
      3        6           0.001046507   -0.000455777    0.000000001
      4        6           0.000115266   -0.000402751    0.000000052
      5        6           0.000275496   -0.000060735    0.000000074
      6        6           0.000164895   -0.000130938   -0.000000099
      7        1           0.000016392   -0.000010411   -0.000000017
      8        7          -0.001794201    0.000049934    0.000000044
      9        7          -0.000492205    0.001114413    0.000000040
     10        1           0.000012626   -0.000008245   -0.000000018
     11        7           0.000114946   -0.000019206    0.000000045
     12        8           0.000158042    0.000049229    0.000000210
     13        8          -0.000008703    0.000005890   -0.000000241
     14        1           0.000001200    0.000020385    0.000000006
 -------------------------------------------------------------------
 Cartesian Forces:  Max     0.001794201 RMS     0.000391647
 IRC-IRC-IRC-IRC-IRC-IRC-IRC-IRC-IRC-IRC-IRC-IRC-IRC-IRC-IRC-IRC-IRC-IRC
 Pt  3 Step number   1 out of a maximum of1000
 CORRECTOR INTEGRATION CONVERGENCE:
   Recorrection delta-x convergence threshold:    0.010000
   Delta-x Convergence Met
 Point Number:   3          Path Number:   1
   CHANGE IN THE REACTION COORDINATE =    0.03606
   NET REACTION COORDINATE UP TO THIS POINT =    0.10818
  # OF POINTS ALONG THE PATH =   3
  # OF STEPS =   1

 Calculating another point on the path.
 IRC-IRC-IRC-IRC-IRC-IRC-IRC-IRC-IRC-IRC-IRC-IRC-IRC-IRC-IRC-IRC-IRC-IRC
                          Input orientation:                          
 ---------------------------------------------------------------------
 Center     Atomic      Atomic             Coordinates (Angstroms)
 Number     Number       Type             X           Y           Z
 ---------------------------------------------------------------------
      1          6           0        0.389392    2.220231    0.000069
      2          6           0        1.596227    1.522483    0.000044
      3          6           0        1.433601    0.135023   -0.000001
      4          6           0        0.351780   -0.667562   -0.000018
      5          6           0       -0.809472    0.111453    0.000004
      6          6           0       -0.827250    1.510295    0.000040
      7          1           0        0.387036    3.309298    0.000107
      8          7           0        2.781510   -0.680377   -0.000038
      9          7           0        3.525414   -1.507397   -0.000068
     10          1           0       -1.776140    2.043317    0.000047
     11          7           0       -2.147990   -0.581134   -0.000007
     12          8           0       -3.151981    0.135252   -0.000227
     13          8           0       -2.164386   -1.800873    0.000208
     14          1           0        2.565555    2.021272    0.000061
 ---------------------------------------------------------------------
                    Distance matrix (angstroms):
                    1          2          3          4          5
     1  C    0.000000
     2  C    1.394024   0.000000
     3  C    2.332051   1.396958   0.000000
     4  C    2.888038   2.518917   1.347026   0.000000
     5  C    2.425741   2.788977   2.243196   1.398346   0.000000
     6  C    1.408626   2.423507   2.646284   2.476525   1.398955
     7  H    1.089069   2.157510   3.342352   3.977016   3.414358
     8  N    3.759755   2.501497   1.575353   2.429764   3.677247
     9  N    4.871328   3.591926   2.659554   3.282875   4.627300
    10  H    2.172747   3.412350   3.734170   3.446290   2.160219
    11  N    3.779677   4.294690   3.652488   2.501264   1.507086
    12  O    4.109557   4.946705   4.585582   3.594559   2.342630
    13  O    4.763513   5.018656   4.085732   2.759617   2.343669
    14  H    2.185239   1.090132   2.199831   3.482906   3.877914
                    6          7          8          9         10
     6  C    0.000000
     7  H    2.170461   0.000000
     8  N    4.221634   4.653064   0.000000
     9  N    5.296427   5.748909   1.112364   0.000000
    10  H    1.088350   2.506400   5.309491   6.380756   0.000000
    11  N    2.473546   4.643470   4.930499   5.748519   2.650664
    12  O    2.700948   4.753862   5.989288   6.876474   2.352371
    13  O    3.570962   5.711707   5.071233   5.697364   3.863746
    14  H    3.431067   2.530801   2.710267   3.656889   4.341752
                   11         12         13         14
    11  N    0.000000
    12  O    1.233373   0.000000
    13  O    1.219849   2.173459   0.000000
    14  H    5.384239   6.020573   6.081212   0.000000
 Symmetry turned off by external request.
 Stoichiometry    C6H3N3O2
 Framework group  C1[X(C6H3N3O2)]
 Deg. of freedom    36
 Full point group                 C1      NOp   1
 Rotational constants (GHZ):      2.1541749      0.7594946      0.5615202
 Standard basis: Aug-CC-pVDZ (5D, 7F)
 Integral buffers will be    131072 words long.
 Raffenetti 2 integral format.
 Two-electron integral symmetry is turned off.
   280 basis functions,   506 primitive gaussians,   302 cartesian basis functions
    38 alpha electrons       38 beta electrons
       nuclear repulsion energy       529.6741070816 Hartrees.
 NAtoms=   14 NActive=   14 NUniq=   14 SFac= 1.00D+00 NAtFMM=   50 NAOKFM=F Big=F
 One-electron integrals computed using PRISM.
 NBasis=   280 RedAO= T  NBF=   280
 NBsUse=   280 1.00D-06 NBFU=   280
 Initial guess read from the read-write file.
 B after Tr=     0.000000    0.000000    0.000000
         Rot=    1.000000    0.000000    0.000000    0.000000 Ang=   0.00 deg.
 Harris functional with IExCor=  402 diagonalized for initial guess.
 ExpMin= 2.97D-02 ExpMax= 1.17D+04 ExpMxC= 4.01D+02 IAcc=3 IRadAn=         0 AccDes= 0.00D+00
 HarFok:  IExCor=  402 AccDes= 0.00D+00 IRadAn=         0 IDoV= 1
 ScaDFX=  1.000000  1.000000  1.000000  1.000000
 FoFCou: FMM=F IPFlag=           0 FMFlag=      100000 FMFlg1=           0
         NFxFlg=           0 DoJE=T BraDBF=F KetDBF=T FulRan=T
         Omega=  0.000000  0.000000  1.000000  0.000000  0.000000 ICntrl=     500 IOpCl=  0
         NMat0=    1 NMatS0=    1 NMatT0=    0 NMatD0=    1 NMtDS0=    0 NMtDT0=    0
         I1Cent=           4 NGrid=           0.
 Symmetry not used in FoFCou.
 Requested convergence on RMS density matrix=1.00D-08 within 128 cycles.
 Requested convergence on MAX density matrix=1.00D-06.
 Requested convergence on             energy=1.00D-06.
 No special actions if energy rises.
 SCF Done:  E(RB3LYP) =  -544.978672617     A.U. after   12 cycles
             Convg  =    0.8462D-08             -V/T =  2.0061
 QCSCF skips out because SCF is already converged.
 Range of M.O.s used for correlation:     1   280
 NBasis=   280 NAE=    38 NBE=    38 NFC=     0 NFV=     0
 NROrb=    280 NOA=    38 NOB=    38 NVA=   242 NVB=   242

 **** Warning!!: The largest alpha MO coefficient is  0.95060885D+02

 Symmetrizing basis deriv contribution to polar:
 IMax=3 JMax=2 DiffMx= 0.00D+00
 Calling FoFJK, ICntrl=      2147 FMM=F ISym2X=0 I1Cent= 0 IOpClX= 0 NMat=1 NMatS=1 NMatT=0.
 -------------------------------------------------------------------
 Center     Atomic                   Forces (Hartrees/Bohr)
 Number     Number              X              Y              Z
 -------------------------------------------------------------------
      1        6           0.000310746   -0.000149737   -0.000000107
      2        6           0.000210749   -0.000056209    0.000000006
      3        6           0.001364204   -0.000601044    0.000000004
      4        6           0.000153543   -0.000528889    0.000000043
      5        6           0.000360936   -0.000079459    0.000000056
      6        6           0.000221027   -0.000172551   -0.000000096
      7        1           0.000022492   -0.000013532   -0.000000016
      8        7          -0.002360561    0.000064709    0.000000049
      9        7          -0.000648510    0.001467548    0.000000052
     10        1           0.000017696   -0.000011489   -0.000000018
     11        7           0.000153170   -0.000022220    0.000000033
     12        8           0.000204811    0.000068349    0.000000215
     13        8          -0.000011238    0.000008567   -0.000000227
     14        1           0.000000936    0.000025955    0.000000005
 -------------------------------------------------------------------
 Cartesian Forces:  Max     0.002360561 RMS     0.000514797
 IRC-IRC-IRC-IRC-IRC-IRC-IRC-IRC-IRC-IRC-IRC-IRC-IRC-IRC-IRC-IRC-IRC-IRC
 Pt  4 Step number   1 out of a maximum of1000
 CORRECTOR INTEGRATION CONVERGENCE:
   Recorrection delta-x convergence threshold:    0.010000
   Delta-x Convergence Met
 Point Number:   4          Path Number:   1
   CHANGE IN THE REACTION COORDINATE =    0.03606
   NET REACTION COORDINATE UP TO THIS POINT =    0.14425
  # OF POINTS ALONG THE PATH =   4
  # OF STEPS =   1

 Calculating another point on the path.
 IRC-IRC-IRC-IRC-IRC-IRC-IRC-IRC-IRC-IRC-IRC-IRC-IRC-IRC-IRC-IRC-IRC-IRC
                          Input orientation:                          
 ---------------------------------------------------------------------
 Center     Atomic      Atomic             Coordinates (Angstroms)
 Number     Number       Type             X           Y           Z
 ---------------------------------------------------------------------
      1          6           0        0.389933    2.219969    0.000068
      2          6           0        1.596597    1.522377    0.000044
      3          6           0        1.435971    0.133971   -0.000001
      4          6           0        0.352054   -0.668484   -0.000018
      5          6           0       -0.808844    0.111314    0.000004
      6          6           0       -0.826862    1.509995    0.000040
      7          1           0        0.387502    3.309026    0.000106
      8          7           0        2.777953   -0.680250   -0.000038
      9          7           0        3.524470   -1.505231   -0.000068
     10          1           0       -1.775754    2.043077    0.000047
     11          7           0       -2.147762   -0.581167   -0.000007
     12          8           0       -3.151713    0.135343   -0.000227
     13          8           0       -2.164400   -1.800860    0.000208
     14          1           0        2.565616    2.021831    0.000061
 ---------------------------------------------------------------------
                    Distance matrix (angstroms):
                    1          2          3          4          5
     1  C    0.000000
     2  C    1.393799   0.000000
     3  C    2.333577   1.397666   0.000000
     4  C    2.888701   2.519675   1.348633   0.000000
     5  C    2.425591   2.788771   2.244929   1.398487   0.000000
     6  C    1.408777   2.423490   2.648368   2.477017   1.398797
     7  H    1.089060   2.157319   3.343690   3.977668   3.414177
     8  N    3.756849   2.499433   1.569673   2.425928   3.673103
     9  N    4.868515   3.589304   2.654960   3.280910   4.625022
    10  H    2.172900   3.412314   3.736290   3.446756   2.160237
    11  N    3.779717   4.294778   3.654389   2.501340   1.507392
    12  O    4.109613   4.946748   4.587684   3.594790   2.342992
    13  O    4.763579   5.018865   4.087327   2.759496   2.343916
    14  H    2.184686   1.090161   2.200026   3.483913   3.877764
                    6          7          8          9         10
     6  C    0.000000
     7  H    2.170528   0.000000
     8  N    4.218040   4.650654   0.000000
     9  N    5.293928   5.746098   1.112601   0.000000
    10  H    1.088381   2.506453   5.305917   6.378312   0.000000
    11  N    2.473406   4.643400   4.926711   5.747009   2.650480
    12  O    2.700852   4.753768   5.985493   6.874802   2.352171
    13  O    3.570822   5.711667   5.067803   5.696547   3.863534
    14  H    3.430871   2.530030   2.710411   3.655074   4.341422
                   11         12         13         14
    11  N    0.000000
    12  O    1.233411   0.000000
    13  O    1.219807   2.173400   0.000000
    14  H    5.384378   6.020522   6.081613   0.000000
 Symmetry turned off by external request.
 Stoichiometry    C6H3N3O2
 Framework group  C1[X(C6H3N3O2)]
 Deg. of freedom    36
 Full point group                 C1      NOp   1
 Rotational constants (GHZ):      2.1551873      0.7598703      0.5617943
 Standard basis: Aug-CC-pVDZ (5D, 7F)
 Integral buffers will be    131072 words long.
 Raffenetti 2 integral format.
 Two-electron integral symmetry is turned off.
   280 basis functions,   506 primitive gaussians,   302 cartesian basis functions
    38 alpha electrons       38 beta electrons
       nuclear repulsion energy       529.7451585760 Hartrees.
 NAtoms=   14 NActive=   14 NUniq=   14 SFac= 1.00D+00 NAtFMM=   50 NAOKFM=F Big=F
 One-electron integrals computed using PRISM.
 NBasis=   280 RedAO= T  NBF=   280
 NBsUse=   280 1.00D-06 NBFU=   280
 Initial guess read from the read-write file.
 B after Tr=     0.000000    0.000000    0.000000
         Rot=    1.000000    0.000000    0.000000    0.000000 Ang=   0.00 deg.
 Harris functional with IExCor=  402 diagonalized for initial guess.
 ExpMin= 2.97D-02 ExpMax= 1.17D+04 ExpMxC= 4.01D+02 IAcc=3 IRadAn=         0 AccDes= 0.00D+00
 HarFok:  IExCor=  402 AccDes= 0.00D+00 IRadAn=         0 IDoV= 1
 ScaDFX=  1.000000  1.000000  1.000000  1.000000
 FoFCou: FMM=F IPFlag=           0 FMFlag=      100000 FMFlg1=           0
         NFxFlg=           0 DoJE=T BraDBF=F KetDBF=T FulRan=T
         Omega=  0.000000  0.000000  1.000000  0.000000  0.000000 ICntrl=     500 IOpCl=  0
         NMat0=    1 NMatS0=    1 NMatT0=    0 NMatD0=    1 NMtDS0=    0 NMtDT0=    0
         I1Cent=           4 NGrid=           0.
 Symmetry not used in FoFCou.
 Requested convergence on RMS density matrix=1.00D-08 within 128 cycles.
 Requested convergence on MAX density matrix=1.00D-06.
 Requested convergence on             energy=1.00D-06.
 No special actions if energy rises.
 SCF Done:  E(RB3LYP) =  -544.978708883     A.U. after   12 cycles
             Convg  =    0.8625D-08             -V/T =  2.0061
 QCSCF skips out because SCF is already converged.
 Range of M.O.s used for correlation:     1   280
 NBasis=   280 NAE=    38 NBE=    38 NFC=     0 NFV=     0
 NROrb=    280 NOA=    38 NOB=    38 NVA=   242 NVB=   242

 **** Warning!!: The largest alpha MO coefficient is  0.94842207D+02

 Symmetrizing basis deriv contribution to polar:
 IMax=3 JMax=2 DiffMx= 0.00D+00
 Calling FoFJK, ICntrl=      2147 FMM=F ISym2X=0 I1Cent= 0 IOpClX= 0 NMat=1 NMatS=1 NMatT=0.
 -------------------------------------------------------------------
 Center     Atomic                   Forces (Hartrees/Bohr)
 Number     Number              X              Y              Z
 -------------------------------------------------------------------
      1        6           0.000381795   -0.000185020   -0.000000102
      2        6           0.000261842   -0.000073763    0.000000000
      3        6           0.001677344   -0.000737612    0.000000000
      4        6           0.000183526   -0.000653794    0.000000034
      5        6           0.000441644   -0.000098093    0.000000046
      6        6           0.000270537   -0.000208174   -0.000000096
      7        1           0.000026648   -0.000013366   -0.000000015
      8        7          -0.002913875    0.000081722    0.000000055
      9        7          -0.000778404    0.001798362    0.000000064
     10        1           0.000024526   -0.000015601   -0.000000018
     11        7           0.000182055   -0.000027010    0.000000027
     12        8           0.000254586    0.000086245    0.000000218
     13        8          -0.000016873    0.000011976   -0.000000217
     14        1           0.000004649    0.000034128    0.000000004
 -------------------------------------------------------------------
 Cartesian Forces:  Max     0.002913875 RMS     0.000633222
 IRC-IRC-IRC-IRC-IRC-IRC-IRC-IRC-IRC-IRC-IRC-IRC-IRC-IRC-IRC-IRC-IRC-IRC
 Pt  5 Step number   1 out of a maximum of1000
 CORRECTOR INTEGRATION CONVERGENCE:
   Recorrection delta-x convergence threshold:    0.010000
   Delta-x Convergence Met
 Point Number:   5          Path Number:   1
   CHANGE IN THE REACTION COORDINATE =    0.03606
   NET REACTION COORDINATE UP TO THIS POINT =    0.18031
  # OF POINTS ALONG THE PATH =   5
  # OF STEPS =   1

 Calculating another point on the path.
 IRC-IRC-IRC-IRC-IRC-IRC-IRC-IRC-IRC-IRC-IRC-IRC-IRC-IRC-IRC-IRC-IRC-IRC
                          Input orientation:                          
 ---------------------------------------------------------------------
 Center     Atomic      Atomic             Coordinates (Angstroms)
 Number     Number       Type             X           Y           Z
 ---------------------------------------------------------------------
      1          6           0        0.390473    2.219710    0.000068
      2          6           0        1.596973    1.522273    0.000044
      3          6           0        1.438343    0.132921   -0.000001
      4          6           0        0.352318   -0.669410   -0.000018
      5          6           0       -0.808219    0.111176    0.000004
      6          6           0       -0.826475    1.509699    0.000040
      7          1           0        0.387957    3.308765    0.000106
      8          7           0        2.774395   -0.680139   -0.000038
      9          7           0        3.523546   -1.503057   -0.000068
     10          1           0       -1.775365    2.042834    0.000046
     11          7           0       -2.147541   -0.581200   -0.000007
     12          8           0       -3.151443    0.135437   -0.000226
     13          8           0       -2.164421   -1.800847    0.000208
     14          1           0        2.565683    2.022402    0.000061
 ---------------------------------------------------------------------
                    Distance matrix (angstroms):
                    1          2          3          4          5
     1  C    0.000000
     2  C    1.393578   0.000000
     3  C    2.335106   1.398378   0.000000
     4  C    2.889372   2.520444   1.350254   0.000000
     5  C    2.425444   2.788574   2.246668   1.398628   0.000000
     6  C    1.408928   2.423480   2.650456   2.477512   1.398642
     7  H    1.089058   2.157145   3.345041   3.978335   3.414003
     8  N    3.753959   2.497387   1.564002   2.422101   3.668965
     9  N    4.865710   3.586684   2.650376   3.278972   4.622763
    10  H    2.173049   3.412279   3.738407   3.447216   2.160248
    11  N    3.779763   4.294878   3.656300   2.501414   1.507702
    12  O    4.109667   4.946794   4.589787   3.595013   2.343349
    13  O    4.763650   5.019085   4.088933   2.759370   2.344166
    14  H    2.184140   1.090197   2.200235   3.484945   3.877629
                    6          7          8          9         10
     6  C    0.000000
     7  H    2.170595   0.000000
     8  N    4.214458   4.648274   0.000000
     9  N    5.291444   5.743305   1.112843   0.000000
    10  H    1.088405   2.506500   5.302348   6.375876   0.000000
    11  N    2.473272   4.643337   4.922930   5.745524   2.650296
    12  O    2.700754   4.753668   5.981699   6.873147   2.351968
    13  O    3.570688   5.711635   5.064375   5.695757   3.863321
    14  H    3.430685   2.529273   2.710589   3.653268   4.341096
                   11         12         13         14
    11  N    0.000000
    12  O    1.233446   0.000000
    13  O    1.219764   2.173340   0.000000
    14  H    5.384535   6.020479   6.082033   0.000000
 Symmetry turned off by external request.
 Stoichiometry    C6H3N3O2
 Framework group  C1[X(C6H3N3O2)]
 Deg. of freedom    36
 Full point group                 C1      NOp   1
 Rotational constants (GHZ):      2.1561954      0.7602421      0.5620661
 Standard basis: Aug-CC-pVDZ (5D, 7F)
 Integral buffers will be    131072 words long.
 Raffenetti 2 integral format.
 Two-electron integral symmetry is turned off.
   280 basis functions,   506 primitive gaussians,   302 cartesian basis functions
    38 alpha electrons       38 beta electrons
       nuclear repulsion energy       529.8157966683 Hartrees.
 NAtoms=   14 NActive=   14 NUniq=   14 SFac= 1.00D+00 NAtFMM=   50 NAOKFM=F Big=F
 One-electron integrals computed using PRISM.
 NBasis=   280 RedAO= T  NBF=   280
 NBsUse=   280 1.00D-06 NBFU=   280
 Initial guess read from the read-write file.
 B after Tr=     0.000000    0.000000    0.000000
         Rot=    1.000000    0.000000    0.000000    0.000000 Ang=   0.00 deg.
 Harris functional with IExCor=  402 diagonalized for initial guess.
 ExpMin= 2.97D-02 ExpMax= 1.17D+04 ExpMxC= 4.01D+02 IAcc=3 IRadAn=         0 AccDes= 0.00D+00
 HarFok:  IExCor=  402 AccDes= 0.00D+00 IRadAn=         0 IDoV= 1
 ScaDFX=  1.000000  1.000000  1.000000  1.000000
 FoFCou: FMM=F IPFlag=           0 FMFlag=      100000 FMFlg1=           0
         NFxFlg=           0 DoJE=T BraDBF=F KetDBF=T FulRan=T
         Omega=  0.000000  0.000000  1.000000  0.000000  0.000000 ICntrl=     500 IOpCl=  0
         NMat0=    1 NMatS0=    1 NMatT0=    0 NMatD0=    1 NMtDS0=    0 NMtDT0=    0
         I1Cent=           4 NGrid=           0.
 Symmetry not used in FoFCou.
 Requested convergence on RMS density matrix=1.00D-08 within 128 cycles.
 Requested convergence on MAX density matrix=1.00D-06.
 Requested convergence on             energy=1.00D-06.
 No special actions if energy rises.
 SCF Done:  E(RB3LYP) =  -544.978752617     A.U. after   12 cycles
             Convg  =    0.7484D-08             -V/T =  2.0061
 QCSCF skips out because SCF is already converged.
 Range of M.O.s used for correlation:     1   280
 NBasis=   280 NAE=    38 NBE=    38 NFC=     0 NFV=     0
 NROrb=    280 NOA=    38 NOB=    38 NVA=   242 NVB=   242

 **** Warning!!: The largest alpha MO coefficient is  0.94606009D+02

 Symmetrizing basis deriv contribution to polar:
 IMax=3 JMax=2 DiffMx= 0.00D+00
 Calling FoFJK, ICntrl=      2147 FMM=F ISym2X=0 I1Cent= 0 IOpClX= 0 NMat=1 NMatS=1 NMatT=0.
 -------------------------------------------------------------------
 Center     Atomic                   Forces (Hartrees/Bohr)
 Number     Number              X              Y              Z
 -------------------------------------------------------------------
      1        6           0.000458928   -0.000217610   -0.000000099
      2        6           0.000317021   -0.000084329   -0.000000003
      3        6           0.001974959   -0.000868184   -0.000000006
      4        6           0.000206634   -0.000776630    0.000000025
      5        6           0.000513984   -0.000114890    0.000000040
      6        6           0.000325978   -0.000254509   -0.000000097
      7        1           0.000033387   -0.000020466   -0.000000015
      8        7          -0.003427664    0.000082287    0.000000060
      9        7          -0.000922112    0.002142854    0.000000075
     10        1           0.000027565   -0.000016805   -0.000000018
     11        7           0.000214869   -0.000031053    0.000000023
     12        8           0.000295332    0.000105265    0.000000219
     13        8          -0.000022421    0.000015075   -0.000000207
     14        1           0.000003540    0.000038996    0.000000003
 -------------------------------------------------------------------
 Cartesian Forces:  Max     0.003427664 RMS     0.000747410
 IRC-IRC-IRC-IRC-IRC-IRC-IRC-IRC-IRC-IRC-IRC-IRC-IRC-IRC-IRC-IRC-IRC-IRC
 Pt  6 Step number   1 out of a maximum of1000
 CORRECTOR INTEGRATION CONVERGENCE:
   Recorrection delta-x convergence threshold:    0.010000
   Delta-x Convergence Met
 Point Number:   6          Path Number:   1
   CHANGE IN THE REACTION COORDINATE =    0.03606
   NET REACTION COORDINATE UP TO THIS POINT =    0.21637
  # OF POINTS ALONG THE PATH =   6
  # OF STEPS =   1

 Calculating another point on the path.
 IRC-IRC-IRC-IRC-IRC-IRC-IRC-IRC-IRC-IRC-IRC-IRC-IRC-IRC-IRC-IRC-IRC-IRC
                          Input orientation:                          
 ---------------------------------------------------------------------
 Center     Atomic      Atomic             Coordinates (Angstroms)
 Number     Number       Type             X           Y           Z
 ---------------------------------------------------------------------
      1          6           0        0.391027    2.219445    0.000068
      2          6           0        1.597358    1.522169    0.000044
      3          6           0        1.440707    0.131874   -0.000001
      4          6           0        0.352568   -0.670343   -0.000018
      5          6           0       -0.807604    0.111036    0.000004
      6          6           0       -0.826079    1.509394    0.000040
      7          1           0        0.388436    3.308490    0.000106
      8          7           0        2.770845   -0.680032   -0.000038
      9          7           0        3.522620   -1.500867   -0.000068
     10          1           0       -1.774963    2.042595    0.000046
     11          7           0       -2.147322   -0.581231   -0.000007
     12          8           0       -3.151179    0.135532   -0.000226
     13          8           0       -2.164442   -1.800833    0.000208
     14          1           0        2.565756    2.022969    0.000061
 ---------------------------------------------------------------------
                    Distance matrix (angstroms):
                    1          2          3          4          5
     1  C    0.000000
     2  C    1.393351   0.000000
     3  C    2.336617   1.399092   0.000000
     4  C    2.890043   2.521232   1.351887   0.000000
     5  C    2.425305   2.788394   2.248408   1.398768   0.000000
     6  C    1.409085   2.423471   2.652524   2.477995   1.398480
     7  H    1.089048   2.156951   3.346366   3.978994   3.413828
     8  N    3.751067   2.495348   1.558351   2.418297   3.664845
     9  N    4.862879   3.584045   2.645790   3.277042   4.620506
    10  H    2.173198   3.412242   3.740507   3.447669   2.160255
    11  N    3.779815   4.294988   3.658206   2.501478   1.508005
    12  O    4.109734   4.946854   4.591887   3.595229   2.343702
    13  O    4.763723   5.019311   4.090533   2.759230   2.344409
    14  H    2.183586   1.090226   2.200448   3.485990   3.877505
                    6          7          8          9         10
     6  C    0.000000
     7  H    2.170667   0.000000
     8  N    4.210873   4.645878   0.000000
     9  N    5.288937   5.740473   1.113075   0.000000
    10  H    1.088432   2.506549   5.298780   6.373422   0.000000
    11  N    2.473135   4.643275   4.919160   5.744038   2.650116
    12  O    2.700663   4.753581   5.977919   6.871491   2.351777
    13  O    3.570549   5.711599   5.060954   5.694968   3.863111
    14  H    3.430496   2.528495   2.710770   3.651439   4.340764
                   11         12         13         14
    11  N    0.000000
    12  O    1.233482   0.000000
    13  O    1.219722   2.173283   0.000000
    14  H    5.384697   6.020445   6.082453   0.000000
 Symmetry turned off by external request.
 Stoichiometry    C6H3N3O2
 Framework group  C1[X(C6H3N3O2)]
 Deg. of freedom    36
 Full point group                 C1      NOp   1
 Rotational constants (GHZ):      2.1572159      0.7606121      0.5623377
 Standard basis: Aug-CC-pVDZ (5D, 7F)
 Integral buffers will be    131072 words long.
 Raffenetti 2 integral format.
 Two-electron integral symmetry is turned off.
   280 basis functions,   506 primitive gaussians,   302 cartesian basis functions
    38 alpha electrons       38 beta electrons
       nuclear repulsion energy       529.8871616946 Hartrees.
 NAtoms=   14 NActive=   14 NUniq=   14 SFac= 1.00D+00 NAtFMM=   50 NAOKFM=F Big=F
 One-electron integrals computed using PRISM.
 NBasis=   280 RedAO= T  NBF=   280
 NBsUse=   280 1.00D-06 NBFU=   280
 Initial guess read from the read-write file.
 B after Tr=     0.000000    0.000000    0.000000
         Rot=    1.000000    0.000000    0.000000    0.000000 Ang=   0.00 deg.
 Harris functional with IExCor=  402 diagonalized for initial guess.
 ExpMin= 2.97D-02 ExpMax= 1.17D+04 ExpMxC= 4.01D+02 IAcc=3 IRadAn=         0 AccDes= 0.00D+00
 HarFok:  IExCor=  402 AccDes= 0.00D+00 IRadAn=         0 IDoV= 1
 ScaDFX=  1.000000  1.000000  1.000000  1.000000
 FoFCou: FMM=F IPFlag=           0 FMFlag=      100000 FMFlg1=           0
         NFxFlg=           0 DoJE=T BraDBF=F KetDBF=T FulRan=T
         Omega=  0.000000  0.000000  1.000000  0.000000  0.000000 ICntrl=     500 IOpCl=  0
         NMat0=    1 NMatS0=    1 NMatT0=    0 NMatD0=    1 NMtDS0=    0 NMtDT0=    0
         I1Cent=           4 NGrid=           0.
 Symmetry not used in FoFCou.
 Requested convergence on RMS density matrix=1.00D-08 within 128 cycles.
 Requested convergence on MAX density matrix=1.00D-06.
 Requested convergence on             energy=1.00D-06.
 No special actions if energy rises.
 SCF Done:  E(RB3LYP) =  -544.978803527     A.U. after   12 cycles
             Convg  =    0.6117D-08             -V/T =  2.0061
 QCSCF skips out because SCF is already converged.
 Range of M.O.s used for correlation:     1   280
 NBasis=   280 NAE=    38 NBE=    38 NFC=     0 NFV=     0
 NROrb=    280 NOA=    38 NOB=    38 NVA=   242 NVB=   242

 **** Warning!!: The largest alpha MO coefficient is  0.94353476D+02

 Symmetrizing basis deriv contribution to polar:
 IMax=3 JMax=2 DiffMx= 0.00D+00
 Calling FoFJK, ICntrl=      2147 FMM=F ISym2X=0 I1Cent= 0 IOpClX= 0 NMat=1 NMatS=1 NMatT=0.
 -------------------------------------------------------------------
 Center     Atomic                   Forces (Hartrees/Bohr)
 Number     Number              X              Y              Z
 -------------------------------------------------------------------
      1        6           0.000527531   -0.000250244   -0.000000097
      2        6           0.000371888   -0.000098874   -0.000000005
      3        6           0.002254779   -0.000995668   -0.000000013
      4        6           0.000235121   -0.000893714    0.000000015
      5        6           0.000588710   -0.000134735    0.000000035
      6        6           0.000374265   -0.000288983   -0.000000098
      7        1           0.000037064   -0.000019422   -0.000000014
      8        7          -0.003939410    0.000092444    0.000000065
      9        7          -0.001044022    0.002459031    0.000000086
     10        1           0.000031783   -0.000019504   -0.000000018
     11        7           0.000244478   -0.000036493    0.000000021
     12        8           0.000339437    0.000123551    0.000000219
     13        8          -0.000027114    0.000017886   -0.000000199
     14        1           0.000005490    0.000044725    0.000000003
 -------------------------------------------------------------------
 Cartesian Forces:  Max     0.003939410 RMS     0.000857305
 IRC-IRC-IRC-IRC-IRC-IRC-IRC-IRC-IRC-IRC-IRC-IRC-IRC-IRC-IRC-IRC-IRC-IRC
 Pt  7 Step number   1 out of a maximum of1000
 CORRECTOR INTEGRATION CONVERGENCE:
   Recorrection delta-x convergence threshold:    0.010000
   Delta-x Convergence Met
 Point Number:   7          Path Number:   1
   CHANGE IN THE REACTION COORDINATE =    0.03606
   NET REACTION COORDINATE UP TO THIS POINT =    0.25243
  # OF POINTS ALONG THE PATH =   7
  # OF STEPS =   1

 Calculating another point on the path.
 IRC-IRC-IRC-IRC-IRC-IRC-IRC-IRC-IRC-IRC-IRC-IRC-IRC-IRC-IRC-IRC-IRC-IRC
                          Input orientation:                          
 ---------------------------------------------------------------------
 Center     Atomic      Atomic             Coordinates (Angstroms)
 Number     Number       Type             X           Y           Z
 ---------------------------------------------------------------------
      1          6           0        0.391580    2.219185    0.000068
      2          6           0        1.597749    1.522066    0.000044
      3          6           0        1.443064    0.130830   -0.000001
      4          6           0        0.352815   -0.671280   -0.000018
      5          6           0       -0.806989    0.110895    0.000004
      6          6           0       -0.825686    1.509091    0.000039
      7          1           0        0.388900    3.308228    0.000106
      8          7           0        2.767293   -0.679938   -0.000038
      9          7           0        3.521699   -1.498672   -0.000068
     10          1           0       -1.774567    2.042352    0.000046
     11          7           0       -2.147103   -0.581264   -0.000007
     12          8           0       -3.150911    0.135630   -0.000226
     13          8           0       -2.164464   -1.800819    0.000207
     14          1           0        2.565836    2.023530    0.000061
 ---------------------------------------------------------------------
                    Distance matrix (angstroms):
                    1          2          3          4          5
     1  C    0.000000
     2  C    1.393133   0.000000
     3  C    2.338128   1.399809   0.000000
[...]
 306                   -0.00287  -0.97370
 307                   -0.00268  -0.93764
 308                   -0.00250  -0.90157
 309                   -0.00232  -0.86551
 310                   -0.00214  -0.82945
 311                   -0.00197  -0.79338
 312                   -0.00180  -0.75732
 313                   -0.00164  -0.72126
 314                   -0.00149  -0.68519
 315                   -0.00135  -0.64913
 316                   -0.00120  -0.61306
 317                   -0.00107  -0.57700
 318                   -0.00095  -0.54094
 319                   -0.00083  -0.50487
 320                   -0.00071  -0.46881
 321                   -0.00061  -0.43275
 322                   -0.00051  -0.39668
 323                   -0.00043  -0.36062
 324                   -0.00034  -0.32456
 325                   -0.00027  -0.28849
 326                   -0.00021  -0.25243
 327                   -0.00015  -0.21637
 328                   -0.00011  -0.18031
 329                   -0.00007  -0.14424
 330                   -0.00004  -0.10818
 331                   -0.00002  -0.07212
 332                    0.00000  -0.03606
 333                    0.00000   0.00000
 334                    0.00000   0.03606
 335                   -0.00002   0.07212
 336                   -0.00004   0.10818
 337                   -0.00007   0.14425
 338                   -0.00010   0.18031
 339                   -0.00015   0.21637
 340                   -0.00020   0.25243
 341                   -0.00025   0.28850
 342                   -0.00032   0.32456
 343                   -0.00039   0.36062
 344                   -0.00046   0.39669
 345                   -0.00055   0.43275
 346                   -0.00063   0.46881
 347                   -0.00072   0.50488
 348                   -0.00081   0.54094
 349                   -0.00091   0.57700
 350                   -0.00101   0.61307
 351                   -0.00111   0.64913
 352                   -0.00121   0.68519
 353                   -0.00131   0.72126
 354                   -0.00141   0.75732
 355                   -0.00151   0.79338
 356                   -0.00161   0.82945
 357                   -0.00171   0.86551
 358                   -0.00180   0.90157
 359                   -0.00189   0.93763
 360                   -0.00198   0.97370
 361                   -0.00206   1.00976
 362                   -0.00213   1.04582
 363                   -0.00220   1.08188
 364                   -0.00227   1.11793
 365                   -0.00233   1.15399
 366                   -0.00238   1.19004
 367                   -0.00243   1.22610
 368                   -0.00247   1.26214
 369                   -0.00251   1.29818
 370                   -0.00254   1.33422
 371                   -0.00257   1.37025
 372                   -0.00260   1.40628
 373                   -0.00262   1.44231
 374                   -0.00265   1.47834
 375                   -0.00267   1.51438
 376                   -0.00268   1.55043
 377                   -0.00270   1.58648
 378                   -0.00272   1.62255
 379                   -0.00273   1.65860
 380                   -0.00275   1.69466
 381                   -0.00276   1.73071
 382                   -0.00277   1.76676
 383                   -0.00279   1.80275
 384                   -0.00280   1.83864
 385                   -0.00281   1.87437
 386                   -0.00282   1.91002
 387                   -0.00282   1.94580
 388                   -0.00283   1.98170
 389                   -0.00284   2.01770
 390                   -0.00285   2.05362
 391                   -0.00285   2.08941
 392                   -0.00285   2.12502
 393                   -0.00286   2.16063
 394                   -0.00286   2.19637
 395                   -0.00286   2.23236
 396                   -0.00286   2.26840
 --------------------------------------------------------------------------
 
 Total number of points:                  395
 Total number of gradient calculations:   396
 Total number of Hessian calculations:      1
 IRC-IRC-IRC-IRC-IRC-IRC-IRC-IRC-IRC-IRC-IRC-IRC-IRC-IRC-IRC-IRC-IRC-IRC
                          Input orientation:                          
 ---------------------------------------------------------------------
 Center     Atomic      Atomic             Coordinates (Angstroms)
 Number     Number       Type             X           Y           Z
 ---------------------------------------------------------------------
      1          6           0        0.146184    2.333042    0.000005
      2          6           0        1.404951    1.678409    0.000055
      3          6           0        1.198890    0.317810    0.000078
      4          6           0        0.169825   -0.397587    0.000067
      5          6           0       -1.073809    0.213540    0.000015
      6          6           0       -1.066345    1.622696   -0.000016
      7          1           0        0.126003    3.424084   -0.000018
      8          7           0        4.002198   -0.977356   -0.000041
      9          7           0        4.078296   -2.078763   -0.000096
     10          1           0       -2.017249    2.152524   -0.000058
     11          7           0       -2.338453   -0.544282   -0.000006
     12          8           0       -3.385265    0.101126   -0.000107
     13          8           0       -2.257225   -1.766327    0.000080
     14          1           0        2.352945    2.210312    0.000070
 ---------------------------------------------------------------------
                    Distance matrix (angstroms):
                    1          2          3          4          5
     1  C    0.000000
     2  C    1.418815   0.000000
     3  C    2.273620   1.376114   0.000000
     4  C    2.730732   2.415636   1.253303   0.000000
     5  C    2.445542   2.879252   2.275090   1.385677   0.000000
     6  C    1.405283   2.471924   2.614196   2.368472   1.409176
     7  H    1.091229   2.164045   3.286339   3.821923   3.427411
     8  N    5.082083   3.714670   3.088039   3.875979   5.213835
     9  N    5.909782   4.611194   3.746270   4.254703   5.639046
    10  H    2.170952   3.454886   3.702664   3.359517   2.156325
    11  N    3.801633   4.353553   3.640878   2.512564   1.474319
    12  O    4.177629   5.043212   4.589273   3.589899   2.314188
    13  O    4.751968   5.027697   4.035884   2.786399   2.306587
    14  H    2.210170   1.087021   2.216620   3.401051   3.966073
                    6          7          8          9         10
     6  C    0.000000
     7  H    2.160253   0.000000
     8  N    5.696525   5.864943   0.000000
     9  N    6.337833   6.775097   1.104033   0.000000
    10  H    1.088547   2.492067   6.784532   7.420206   0.000000
    11  N    2.512778   4.671346   6.355423   6.597674   2.715866
    12  O    2.773547   4.834362   7.465770   7.775388   2.465705
    13  O    3.592168   5.711405   6.308950   6.343220   3.926191
    14  H    3.469414   2.536240   3.589047   4.623094   4.370576
                   11         12         13         14
    11  N    0.000000
    12  O    1.229783   0.000000
    13  O    1.224742   2.181708   0.000000
    14  H    5.440312   6.113568   6.088294   0.000000
 Symmetry turned off by external request.
 Stoichiometry    C6H3N3O2
 Framework group  C1[X(C6H3N3O2)]
 Deg. of freedom    36
 Full point group                 C1      NOp   1
 Rotational constants (GHZ):      1.8554299      0.5686105      0.4352307

 **********************************************************************

            Population analysis using the SCF density.

 **********************************************************************

 Alpha  occ. eigenvalues --  -19.19569 -19.19440 -14.58216 -14.45613 -14.45458
 Alpha  occ. eigenvalues --  -10.29274 -10.26454 -10.24965 -10.24555 -10.24358
 Alpha  occ. eigenvalues --  -10.23649  -1.24495  -1.14135  -1.07306  -0.92363
 Alpha  occ. eigenvalues --   -0.83327  -0.79072  -0.73448  -0.63372  -0.61646
 Alpha  occ. eigenvalues --   -0.57170  -0.56904  -0.54958  -0.53639  -0.53199
 Alpha  occ. eigenvalues --   -0.49715  -0.47867  -0.47817  -0.44651  -0.44370
 Alpha  occ. eigenvalues --   -0.43447  -0.42464  -0.33473  -0.32961  -0.31554
 Alpha  occ. eigenvalues --   -0.30921  -0.30496  -0.30065
 Alpha virt. eigenvalues --   -0.11895  -0.11543  -0.04760  -0.04111  -0.03920
 Alpha virt. eigenvalues --   -0.02822  -0.01852   0.00375   0.01401   0.03445
 Alpha virt. eigenvalues --    0.03588   0.04070   0.04935   0.06371   0.06671
 Alpha virt. eigenvalues --    0.07040   0.07359   0.08168   0.08452   0.09107
 Alpha virt. eigenvalues --    0.09898   0.10174   0.10225   0.11246   0.11509
 Alpha virt. eigenvalues --    0.11823   0.12099   0.13135   0.13551   0.14453
 Alpha virt. eigenvalues --    0.14752   0.16024   0.16035   0.17147   0.17690
 Alpha virt. eigenvalues --    0.18391   0.18461   0.18805   0.19902   0.20369
 Alpha virt. eigenvalues --    0.21367   0.21723   0.22232   0.22746   0.22973
 Alpha virt. eigenvalues --    0.24173   0.24476   0.25009   0.25590   0.26283
 Alpha virt. eigenvalues --    0.27343   0.28126   0.28186   0.28359   0.28700
 Alpha virt. eigenvalues --    0.29431   0.30135   0.30630   0.31820   0.32065
 Alpha virt. eigenvalues --    0.32759   0.34163   0.34636   0.36149   0.36264
 Alpha virt. eigenvalues --    0.38642   0.39045   0.40111   0.40182   0.42231
 Alpha virt. eigenvalues --    0.42741   0.43298   0.43551   0.45962   0.47099
 Alpha virt. eigenvalues --    0.47593   0.48857   0.48960   0.49300   0.49627
 Alpha virt. eigenvalues --    0.50437   0.51079   0.52589   0.52987   0.53702
 Alpha virt. eigenvalues --    0.55272   0.56441   0.57243   0.58137   0.59649
 Alpha virt. eigenvalues --    0.59704   0.60010   0.60332   0.60625   0.62110
 Alpha virt. eigenvalues --    0.64002   0.64132   0.65203   0.67300   0.67837
 Alpha virt. eigenvalues --    0.68020   0.70197   0.71227   0.71330   0.71932
 Alpha virt. eigenvalues --    0.71935   0.73433   0.74031   0.74938   0.76910
 Alpha virt. eigenvalues --    0.77077   0.78136   0.78741   0.80285   0.80441
 Alpha virt. eigenvalues --    0.82346   0.82528   0.83386   0.84845   0.86258
 Alpha virt. eigenvalues --    0.86648   0.88293   0.89226   0.89821   0.92245
 Alpha virt. eigenvalues --    0.94928   0.97176   1.00005   1.00571   1.02201
 Alpha virt. eigenvalues --    1.03926   1.04623   1.05224   1.05747   1.06583
 Alpha virt. eigenvalues --    1.07216   1.09702   1.10215   1.13500   1.15666
 Alpha virt. eigenvalues --    1.17004   1.17085   1.19070   1.19984   1.21179
 Alpha virt. eigenvalues --    1.23766   1.24484   1.26022   1.27203   1.28114
 Alpha virt. eigenvalues --    1.29184   1.30279   1.32924   1.34282   1.35574
 Alpha virt. eigenvalues --    1.36404   1.37869   1.39162   1.40192   1.41436
 Alpha virt. eigenvalues --    1.41939   1.43273   1.45913   1.45925   1.48382
 Alpha virt. eigenvalues --    1.51886   1.56087   1.57110   1.58801   1.60756
 Alpha virt. eigenvalues --    1.61364   1.62547   1.63927   1.64157   1.69649
 Alpha virt. eigenvalues --    1.71659   1.71733   1.72575   1.75437   1.76076
 Alpha virt. eigenvalues --    1.76561   1.80130   1.84440   1.84803   1.86070
 Alpha virt. eigenvalues --    1.89965   1.91008   1.91790   1.93301   1.94109
 Alpha virt. eigenvalues --    1.94740   1.99410   1.99540   2.00246   2.00297
 Alpha virt. eigenvalues --    2.03498   2.06288   2.08284   2.10921   2.13254
 Alpha virt. eigenvalues --    2.17224   2.19239   2.26404   2.30074   2.31859
 Alpha virt. eigenvalues --    2.33520   2.35503   2.36123   2.37614   2.39179
 Alpha virt. eigenvalues --    2.43708   2.45214   2.47703   2.54517   2.58320
 Alpha virt. eigenvalues --    2.63665   2.68146   2.76464   2.78021   2.78393
 Alpha virt. eigenvalues --    2.80260   2.83553   2.85315   2.91768   2.95840
 Alpha virt. eigenvalues --    2.97194   3.07296   3.13709   3.27090   3.27783
 Alpha virt. eigenvalues --    3.27905   3.28447   3.34560   3.37995   3.38185
 Alpha virt. eigenvalues --    3.46558   3.56982   3.59972   3.75535   3.79004
 Alpha virt. eigenvalues --    3.81129   4.12546
          Condensed to atoms (all electrons):
              1          2          3          4          5          6
     1  C   12.662956  -2.033817   0.804232  -2.355878   0.947427  -3.808296
     2  C   -2.033817  11.600907  -1.892631  -0.011379  -2.356422   1.057819
     3  C    0.804232  -1.892631   8.854148  -0.288792   0.387847  -2.157609
     4  C   -2.355878  -0.011379  -0.288792  10.330729  -1.428340   0.060743
     5  C    0.947427  -2.356422   0.387847  -1.428340  10.962692  -3.392667
     6  C   -3.808296   1.057819  -2.157609   0.060743  -3.392667  13.851248
     7  H   -1.698682   0.337962  -0.496319   0.161248  -0.170499   1.298927
     8  N   -0.036584   0.092182  -0.187289   0.081588  -0.037016   0.028417
     9  N   -0.003999  -0.060892   0.044023   0.023649   0.017691  -0.002667
    10  H    0.847901  -0.105134   0.081611  -0.235008   0.636019  -1.847249
    11  N   -0.469709   0.246490  -0.160766   0.450079  -0.930337   0.242821
    12  O   -0.029824  -0.026665   0.019697  -0.117058   0.273149  -0.005083
    13  O   -0.000103  -0.023300   0.026601  -0.065249   0.201497  -0.053262
    14  H    0.511667  -1.659646   0.763000   0.046222   0.139768  -0.360314
              7          8          9         10         11         12
     1  C   -1.698682  -0.036584  -0.003999   0.847901  -0.469709  -0.029824
     2  C    0.337962   0.092182  -0.060892  -0.105134   0.246490  -0.026665
     3  C   -0.496319  -0.187289   0.044023   0.081611  -0.160766   0.019697
     4  C    0.161248   0.081588   0.023649  -0.235008   0.450079  -0.117058
     5  C   -0.170499  -0.037016   0.017691   0.636019  -0.930337   0.273149
     6  C    1.298927   0.028417  -0.002667  -1.847249   0.242821  -0.005083
     7  H    2.669546  -0.000320   0.000047  -0.209791   0.015412  -0.000411
     8  N   -0.000320   7.299284  -0.383124   0.000383   0.002653  -0.000001
     9  N    0.000047  -0.383124   7.532127  -0.000056  -0.000342  -0.000001
    10  H   -0.209791   0.000383  -0.000056   2.786325  -0.125590  -0.019302
    11  N    0.015412   0.002653  -0.000342  -0.125590   8.073628  -0.528445
    12  O   -0.000411  -0.000001  -0.000001  -0.019302  -0.528445   9.158374
    13  O   -0.000068  -0.000087   0.000005  -0.009935  -0.489408  -0.035170
    14  H   -0.168969  -0.018224  -0.000243  -0.007091  -0.005150  -0.000151
             13         14
     1  C   -0.000103   0.511667
     2  C   -0.023300  -1.659646
     3  C    0.026601   0.763000
     4  C   -0.065249   0.046222
     5  C    0.201497   0.139768
     6  C   -0.053262  -0.360314
     7  H   -0.000068  -0.168969
     8  N   -0.000087  -0.018224
     9  N    0.000005  -0.000243
    10  H   -0.009935  -0.007091
    11  N   -0.489408  -0.005150
    12  O   -0.035170  -0.000151
    13  O    9.111407   0.000048
    14  H    0.000048   2.429702
 Mulliken atomic charges:
              1
     1  C    0.662709
     2  C    0.834525
     3  C    0.202247
     4  C   -0.652555
     5  C    0.749191
     6  C    1.087173
     7  H   -0.738084
     8  N    0.158138
     9  N   -0.166217
    10  H   -0.793083
    11  N    0.678664
    12  O   -0.689109
    13  O   -0.662977
    14  H   -0.670621
 Sum of Mulliken atomic charges =   0.00000
 Mulliken charges with hydrogens summed into heavy atoms:
              1
     1  C   -0.075375
     2  C    0.163904
     3  C    0.202247
     4  C   -0.652555
     5  C    0.749191
     6  C    0.294089
     8  N    0.158138
     9  N   -0.166217
    11  N    0.678664
    12  O   -0.689109
    13  O   -0.662977
 Sum of Mulliken charges with hydrogens summed into heavy atoms =   0.00000
 APT atomic charges:
              1
     1  C    0.044453
     2  C    0.229946
     3  C    0.056945
     4  C    0.352868
     5  C   -0.175683
     6  C    0.222251
     7  H   -0.076656
     8  N   -0.643964
     9  N    0.620051
    10  H   -0.162919
    11  N    0.696449
    12  O   -0.506389
    13  O   -0.537771
    14  H   -0.119581
 Sum of APT charges=   0.00000
 APT Atomic charges with hydrogens summed into heavy atoms:
              1
     1  C   -0.032202
     2  C    0.110364
     3  C    0.056945
     4  C    0.352868
     5  C   -0.175683
     6  C    0.059332
     7  H    0.000000
     8  N   -0.643964
     9  N    0.620051
    10  H    0.000000
    11  N    0.696449
    12  O   -0.506389
    13  O   -0.537771
    14  H    0.000000
 Sum of APT charges=   0.00000
 Electronic spatial extent (au):  <R**2>=           2268.8285
 Charge=              0.0000 electrons
 Dipole moment (field-independent basis, Debye):
    X=              3.7548    Y=              4.0972    Z=              0.0000  Tot=              5.5574
 Quadrupole moment (field-independent basis, Debye-Ang):
   XX=            -69.1861   YY=            -58.5750   ZZ=            -61.7480
   XY=             -1.9883   XZ=             -0.0001   YZ=              0.0002
 Traceless Quadrupole moment (field-independent basis, Debye-Ang):
   XX=             -6.0164   YY=              4.5947   ZZ=              1.4217
   XY=             -1.9883   XZ=             -0.0001   YZ=              0.0002
 Octapole moment (field-independent basis, Debye-Ang**2):
  XXX=             46.9494  YYY=             15.2068  ZZZ=             -0.0008  XYY=              2.4054
  XXY=              9.5814  XXZ=              0.0014  XZZ=             -5.9199  YZZ=            -11.4985
  YYZ=             -0.0006  XYZ=             -0.0005
 Hexadecapole moment (field-independent basis, Debye-Ang**3):
 XXXX=          -2178.4319 YYYY=           -739.5991 ZZZZ=            -64.0549 XXXY=             83.6960
 XXXZ=             -0.0027 YYYX=            106.3919 YYYZ=             -0.0036 ZZZX=              0.0016
 ZZZY=             -0.0024 XXYY=           -486.5994 XXZZ=           -344.6762 YYZZ=           -148.2985
 XXYZ=             -0.0004 YYXZ=              0.0037 ZZXY=             31.9519
 N-N= 4.998436439303D+02 E-N=-2.271448829077D+03  KE= 5.416954974864D+02
  Exact polarizability:   0.000   0.000   0.000   0.000   0.000   0.000
 Approx polarizability: 218.166  16.539 226.503   0.004  -0.003  85.492
 -------------------------------------------------------------------
 Center     Atomic                   Forces (Hartrees/Bohr)
 Number     Number              X              Y              Z
 -------------------------------------------------------------------
      1        6          -0.000136720    0.000082112   -0.000000074
      2        6          -0.000152841    0.000102316   -0.000000006
      3        6           0.000103040    0.000202532    0.000000063
      4        6          -0.000356151   -0.000056481    0.000000058
      5        6          -0.000089882    0.000070341    0.000000007
      6        6          -0.000172529    0.000046297   -0.000000062
      7        1          -0.000014059    0.000005506   -0.000000009
      8        7           0.000501209   -0.000238972    0.000000032
      9        7           0.000819719   -0.000369030   -0.000000024
     10        1          -0.000013532    0.000005210   -0.000000008
     11        7          -0.000147904    0.000044044    0.000000008
     12        8          -0.000178877    0.000048563    0.000000197
     13        8          -0.000149226    0.000055647   -0.000000183
     14        1          -0.000012247    0.000001917    0.000000000
 -------------------------------------------------------------------
 Cartesian Forces:  Max     0.000819719 RMS     0.000188126

 This type of calculation cannot be archived.


 In the beginning the Universe was created.
 This has made a lot of people very angry
 and been widely regarded as a bad move.
                               -D.Adams
 Job cpu time:  2 days 22 hours 58 minutes 19.0 seconds.
 File lengths (MBytes):  RWF=    131 Int=      0 D2E=      0 Chk=     21 Scr=      1
 Normal termination of Gaussian 09 at Sat Dec 22 09:37:52 2018.
