 Entering Gaussian System, Link 0=/home/ubuntu/g09/g09
 Input=3-NO2-C6H3-N2-v1-IRC.gjf
 Output=3-NO2-C6H3-N2-v1-IRC.log
 Initial command:
 /home/ubuntu/g09/l1.exe /home/ubuntu/g09/Gau-9920.inp -scrdir=/home/ubuntu/g09/
 Entering Link 1 = /home/ubuntu/g09/l1.exe PID=      9922.
  
 Copyright (c) 1988,1990,1992,1993,1995,1998,2003,2009,2010,
            Gaussian, Inc.  All Rights Reserved.
  
 This is part of the Gaussian(R) 09 program.  It is based on
 the Gaussian(R) 03 system (copyright 2003, Gaussian, Inc.),
 the Gaussian(R) 98 system (copyright 1998, Gaussian, Inc.),
 the Gaussian(R) 94 system (copyright 1995, Gaussian, Inc.),
 the Gaussian 92(TM) system (copyright 1992, Gaussian, Inc.),
 the Gaussian 90(TM) system (copyright 1990, Gaussian, Inc.),
 the Gaussian 88(TM) system (copyright 1988, Gaussian, Inc.),
 the Gaussian 86(TM) system (copyright 1986, Carnegie Mellon
 University), and the Gaussian 82(TM) system (copyright 1983,
 Carnegie Mellon University). Gaussian is a federally registered
 trademark of Gaussian, Inc.
  
 This software contains proprietary and confidential information,
 including trade secrets, belonging to Gaussian, Inc.
  
 This software is provided under written license and may be
 used, copied, transmitted, or stored only in accord with that
 written license.
  
 The following legend is applicable only to US Government
 contracts under FAR:
  
                    RESTRICTED RIGHTS LEGEND
  
 Use, reproduction and disclosure by the US Government is
 subject to restrictions as set forth in subparagraphs (a)
 and (c) of the Commercial Computer Software - Restricted
 Rights clause in FAR 52.227-19.
  
 Gaussian, Inc.
 340 Quinnipiac St., Bldg. 40, Wallingford CT 06492
  
  
 ---------------------------------------------------------------
 Warning -- This program may not be used in any manner that
 competes with the business of Gaussian, Inc. or will provide
 assistance to any competitor of Gaussian, Inc.  The licensee
 of this program is prohibited from giving any competitor of
 Gaussian, Inc. access to this program.  By using this program,
 the user acknowledges that Gaussian, Inc. is engaged in the
 business of creating and licensing software in the field of
 computational chemistry and represents and warrants to the
 licensee that it is not a competitor of Gaussian, Inc. and that
 it will not use this program in any manner prohibited above.
 ---------------------------------------------------------------
  

 Cite this work as:
 Gaussian 09, Revision B.01,
 M. J. Frisch, G. W. Trucks, H. B. Schlegel, G. E. Scuseria, 
 M. A. Robb, J. R. Cheeseman, G. Scalmani, V. Barone, B. Mennucci, 
 G. A. Petersson, H. Nakatsuji, M. Caricato, X. Li, H. P. Hratchian, 
 A. F. Izmaylov, J. Bloino, G. Zheng, J. L. Sonnenberg, M. Hada, 
 M. Ehara, K. Toyota, R. Fukuda, J. Hasegawa, M. Ishida, T. Nakajima, 
 Y. Honda, O. Kitao, H. Nakai, T. Vreven, J. A. Montgomery, Jr., 
 J. E. Peralta, F. Ogliaro, M. Bearpark, J. J. Heyd, E. Brothers, 
 K. N. Kudin, V. N. Staroverov, T. Keith, R. Kobayashi, J. Normand, 
 K. Raghavachari, A. Rendell, J. C. Burant, S. S. Iyengar, J. Tomasi, 
 M. Cossi, N. Rega, J. M. Millam, M. Klene, J. E. Knox, J. B. Cross, 
 V. Bakken, C. Adamo, J. Jaramillo, R. Gomperts, R. E. Stratmann, 
 O. Yazyev, A. J. Austin, R. Cammi, C. Pomelli, J. W. Ochterski, 
 R. L. Martin, K. Morokuma, V. G. Zakrzewski, G. A. Voth, 
 P. Salvador, J. J. Dannenberg, S. Dapprich, A. D. Daniels, 
 O. Farkas, J. B. Foresman, J. V. Ortiz, J. Cioslowski, 
 and D. J. Fox, Gaussian, Inc., Wallingford CT, 2010.
 
 ******************************************
 Gaussian 09:  EM64L-G09RevB.01 12-Aug-2010
                21-Dec-2018 
 ******************************************
 %chk=3-NO2-C6H3-N2-v1-IRC.chk
 %mem=500MW
 %nproc=7
 Will use up to    7 processors via shared memory.
 ----------------------------------------------------------------------
 # rb3lyp/aug-cc-pVDZ irc=(calcfc,maxcycle=1000,maxpoints=10000,stepsiz
 e=1) scf=(xqc,maxcycle=1000) nosymm
 ----------------------------------------------------------------------
 1/6=1000,10=4,14=-1,18=10,26=3,38=1,39=1,42=10000,44=3/1,23;
 2/12=2,15=1,17=6,18=5,29=1,40=1/2;
 3/5=16,7=10,11=2,16=1,25=1,30=1,71=2,74=-5,116=1/1,2,3;
 4//1;
 5/5=2,7=1000,8=3,13=1,38=5/2,8;
 8/6=4,10=90,11=11/1;
 11/6=1,8=1,9=11,15=111,16=1,31=1/1,2,10;
 10/6=1,7=6,13=1,31=1/2;
 6/7=2,8=2,9=2,10=2,28=1/1;
 7/10=1,18=20,25=1,30=1/1,2,3,16;
 1/6=1000,10=4,14=-1,18=10,39=1,42=10000,44=3/23(3);
 2/15=1,29=1/2;
 7/9=1,25=1,30=1,44=-1/16;
 99/5=20/99;
 2/15=1,29=1/2;
 3/5=16,7=10,11=2,16=1,25=1,30=1,71=2,74=-5,116=1/1,2,3;
 4/5=5,16=3/1;
 5/5=2,7=1000,8=3,13=1,38=5/2,8;
 8/6=4,10=90,11=11/1;
 11/6=1,8=1,9=11,15=111,16=1,31=1/1,2,10;
 10/6=1,7=6,13=1,31=1/2;
 7/10=1,18=20,25=1,30=1/1,2,3,16;
 1/6=1000,14=-1,18=10,39=1,42=10000,44=3/23(-8);
 2/15=1,29=1/2;
 6/7=2,8=2,9=2,10=2,19=2,28=1/1;
 7/9=1,25=1,30=1,44=-1/16;
 99/5=20,9=1/99;
 ----------------
 3-NO2-C6H3-N2-v1
 ----------------
 Symbolic Z-matrix:
 Charge =  0 Multiplicity = 1
 C                     0.46811   2.12789   0. 
 C                     1.6812    1.38308   0. 
 C                     1.42926   0.06489   0. 
 C                     0.26981  -0.70239   0. 
 C                    -0.86914   0.09744   0. 
 C                    -0.78254   1.50513   0. 
 H                     0.49712   3.22037   0. 
 H                     0.21708  -1.78888   0. 
 N                     2.76802  -0.81581   0. 
 N                     3.84123  -1.10504   0. 
 H                    -1.70603   2.0821    0.00001 
 N                    -2.1862   -0.55786   0. 
 O                    -3.18186   0.16048   0. 
 O                    -2.21186  -1.78784   0. 
 
 IRC-IRC-IRC-IRC-IRC-IRC-IRC-IRC-IRC-IRC-IRC-IRC-IRC-IRC-IRC-IRC-IRC-IRC
 ------------------------------------------------------------------------
 INPUT DATA FOR L123
 ------------------------------------------------------------------------
 GENERAL PARAMETERS:
 Follow reaction path in both directions.
 Maximum points per path      =****
 Step size                    =   0.010 bohr
 Integration scheme           = HPC                                 
    Redo corrector integration= Yes                                 
    Max correction cycles     =1000
 Initial Hessian              = CalcFC
 Hessian eveluation           = All updating
    Hessian updating method   = Bofill                              
 ------------------------------------------------------------------------
 IRC-IRC-IRC-IRC-IRC-IRC-IRC-IRC-IRC-IRC-IRC-IRC-IRC-IRC-IRC-IRC-IRC-IRC
                          Input orientation:                          
 ---------------------------------------------------------------------
 Center     Atomic      Atomic             Coordinates (Angstroms)
 Number     Number       Type             X           Y           Z
 ---------------------------------------------------------------------
      1          6           0        0.468110    2.127890    0.000000
      2          6           0        1.681200    1.383080    0.000000
      3          6           0        1.429260    0.064890    0.000000
      4          6           0        0.269810   -0.702390    0.000000
      5          6           0       -0.869140    0.097440    0.000000
      6          6           0       -0.782540    1.505130    0.000000
      7          1           0        0.497120    3.220370    0.000000
      8          1           0        0.217080   -1.788880    0.000000
      9          7           0        2.768020   -0.815810    0.000000
     10          7           0        3.841230   -1.105040    0.000000
     11          1           0       -1.706030    2.082100    0.000010
     12          7           0       -2.186200   -0.557860    0.000000
     13          8           0       -3.181860    0.160480    0.000000
     14          8           0       -2.211860   -1.787840    0.000000
 ---------------------------------------------------------------------
                    Distance matrix (angstroms):
                    1          2          3          4          5
     1  C    0.000000
     2  C    1.423492   0.000000
     3  C    2.275913   1.342050   0.000000
     4  C    2.837218   2.518175   1.390339   0.000000
     5  C    2.431248   2.856064   2.298630   1.391738   0.000000
     6  C    1.397124   2.466761   2.639384   2.445523   1.410351
     7  H    1.092865   2.185790   3.290279   3.929340   3.408718
     8  H    3.924806   3.493562   2.214914   1.087769   2.176712
     9  N    3.735633   2.452814   1.602470   2.500783   3.750061
    10  N    4.672234   3.294916   2.680734   3.594046   4.861434
    11  H    2.174622   3.458606   3.728160   3.414283   2.153894
    12  N    3.776058   4.327127   3.668701   2.460259   1.471076
    13  O    4.146442   5.014390   4.612111   3.557888   2.313579
    14  O    4.745016   5.021021   4.085384   2.708669   2.314558
                    6          7          8          9         10
     6  C    0.000000
     7  H    2.139995   0.000000
     8  H    3.442345   5.017072   0.000000
     9  N    4.241844   4.631170   2.730231   0.000000
    10  N    5.309636   5.467380   3.688103   1.111501   0.000000
    11  H    1.088911   2.479824   4.322365   5.330573   6.397652
    12  N    2.495233   4.634137   2.700216   4.960931   6.052216
    13  O    2.750422   4.785167   3.918265   6.029446   7.136199
    14  O    3.589792   5.693921   2.428940   5.073859   6.091479
                   11         12         13         14
    11  H    0.000000
    12  N    2.683273   0.000000
    13  O    2.422952   1.227742   0.000000
    14  O    3.902858   1.230248   2.176431   0.000000
 Symmetry turned off by external request.
 Stoichiometry    C6H3N3O2
 Framework group  C1[X(C6H3N3O2)]
 Deg. of freedom    36
 Full point group                 C1      NOp   1
 Rotational constants (GHZ):      2.3971169      0.7192951      0.5532755
 Standard basis: Aug-CC-pVDZ (5D, 7F)
 Integral buffers will be    131072 words long.
 Raffenetti 2 integral format.
 Two-electron integral symmetry is turned off.
   280 basis functions,   506 primitive gaussians,   302 cartesian basis functions
    38 alpha electrons       38 beta electrons
       nuclear repulsion energy       530.5255793279 Hartrees.
 NAtoms=   14 NActive=   14 NUniq=   14 SFac= 1.00D+00 NAtFMM=   50 NAOKFM=F Big=F
 One-electron integrals computed using PRISM.
 NBasis=   280 RedAO= T  NBF=   280
 NBsUse=   280 1.00D-06 NBFU=   280
 Harris functional with IExCor=  402 diagonalized for initial guess.
 ExpMin= 2.97D-02 ExpMax= 1.17D+04 ExpMxC= 4.01D+02 IAcc=3 IRadAn=         0 AccDes= 0.00D+00
 HarFok:  IExCor=  402 AccDes= 0.00D+00 IRadAn=         0 IDoV= 1
 ScaDFX=  1.000000  1.000000  1.000000  1.000000
 FoFCou: FMM=F IPFlag=           0 FMFlag=      100000 FMFlg1=           0
         NFxFlg=           0 DoJE=T BraDBF=F KetDBF=T FulRan=T
         Omega=  0.000000  0.000000  1.000000  0.000000  0.000000 ICntrl=     500 IOpCl=  0
         NMat0=    1 NMatS0=    1 NMatT0=    0 NMatD0=    1 NMtDS0=    0 NMtDT0=    0
         I1Cent=           4 NGrid=           0.
 Symmetry not used in FoFCou.
 Requested convergence on RMS density matrix=1.00D-08 within 128 cycles.
 Requested convergence on MAX density matrix=1.00D-06.
 Requested convergence on             energy=1.00D-06.
 No special actions if energy rises.
 EnCoef did     2 forward-backward iterations
 EnCoef did     2 forward-backward iterations
 SCF Done:  E(RB3LYP) =  -544.974270211     A.U. after   19 cycles
             Convg  =    0.6143D-08             -V/T =  2.0061
 QCSCF skips out because SCF is already converged.
 Range of M.O.s used for correlation:     1   280
 NBasis=   280 NAE=    38 NBE=    38 NFC=     0 NFV=     0
 NROrb=    280 NOA=    38 NOB=    38 NVA=   242 NVB=   242

 **** Warning!!: The largest alpha MO coefficient is  0.11262550D+03

 Symmetrizing basis deriv contribution to polar:
 IMax=3 JMax=2 DiffMx= 0.00D+00
 G2DrvN: will do    15 centers at a time, making    1 passes doing MaxLOS=2.
 Calling FoFCou, ICntrl=  3107 FMM=F I1Cent=   0 AccDes= 0.00D+00.
 FoFDir/FoFCou used for L=0 through L=2.
 End of G2Drv Frequency-dependent properties file   721 does not exist.
 End of G2Drv Frequency-dependent properties file   722 does not exist.
          IDoAtm=11111111111111
          Differentiating once with respect to nuclear coordinates.
          There are    45 degrees of freedom in the 1st order CPHF.  IDoFFX=5.
     39 vectors produced by pass  0 Test12= 2.04D-10 2.22D-07 XBig12= 7.44D-01 2.46D-01.
 AX will form    39 AO Fock derivatives at one time.
     39 vectors produced by pass  1 Test12= 2.04D-10 2.22D-07 XBig12= 2.49D-01 1.80D-01.
     39 vectors produced by pass  2 Test12= 2.04D-10 2.22D-07 XBig12= 3.84D-03 1.05D-02.
     39 vectors produced by pass  3 Test12= 2.04D-10 2.22D-07 XBig12= 7.37D-05 1.04D-03.
     39 vectors produced by pass  4 Test12= 2.04D-10 2.22D-07 XBig12= 2.72D-07 9.67D-05.
     19 vectors produced by pass  5 Test12= 2.04D-10 2.22D-07 XBig12= 5.56D-10 3.05D-06.
 Inverted reduced A of dimension   214 with in-core refinement.
 End of Minotr Frequency-dependent properties file   721 does not exist.
 End of Minotr Frequency-dependent properties file   722 does not exist.

 **********************************************************************

            Population analysis using the SCF density.

 **********************************************************************

 Alpha  occ. eigenvalues --  -19.19725 -19.19622 -14.58572 -14.54118 -14.51698
 Alpha  occ. eigenvalues --  -10.29285 -10.27284 -10.25526 -10.23353 -10.22514
 Alpha  occ. eigenvalues --  -10.19053  -1.24703  -1.20483  -1.07420  -0.92149
 Alpha  occ. eigenvalues --   -0.84298  -0.80184  -0.73433  -0.70124  -0.63252
 Alpha  occ. eigenvalues --   -0.59265  -0.56370  -0.55227  -0.55138  -0.54809
 Alpha  occ. eigenvalues --   -0.52978  -0.51774  -0.50322  -0.47672  -0.45850
 Alpha  occ. eigenvalues --   -0.41337  -0.39429  -0.33245  -0.33015  -0.31276
 Alpha  occ. eigenvalues --   -0.30697  -0.29035  -0.23345
 Alpha virt. eigenvalues --   -0.12291  -0.11838  -0.11017  -0.04093  -0.02087
 Alpha virt. eigenvalues --   -0.00523   0.00176   0.00977   0.02219   0.03202
 Alpha virt. eigenvalues --    0.03428   0.04111   0.05306   0.06370   0.06455
 Alpha virt. eigenvalues --    0.07596   0.07886   0.08652   0.08903   0.09662
 Alpha virt. eigenvalues --    0.10508   0.10802   0.10866   0.11495   0.11614
 Alpha virt. eigenvalues --    0.11756   0.12419   0.13291   0.13773   0.14603
 Alpha virt. eigenvalues --    0.15600   0.16849   0.16884   0.17309   0.17832
 Alpha virt. eigenvalues --    0.18626   0.19438   0.19597   0.20271   0.20824
 Alpha virt. eigenvalues --    0.22103   0.22385   0.23103   0.23315   0.23814
 Alpha virt. eigenvalues --    0.23921   0.25207   0.25874   0.26089   0.26497
 Alpha virt. eigenvalues --    0.26850   0.27242   0.28069   0.29100   0.29177
 Alpha virt. eigenvalues --    0.30049   0.30755   0.31239   0.32070   0.32422
 Alpha virt. eigenvalues --    0.33330   0.33706   0.35163   0.37352   0.38206
 Alpha virt. eigenvalues --    0.38829   0.40908   0.41301   0.41751   0.43055
 Alpha virt. eigenvalues --    0.43538   0.43684   0.45012   0.46334   0.47142
 Alpha virt. eigenvalues --    0.47308   0.48862   0.50394   0.50875   0.52430
 Alpha virt. eigenvalues --    0.53439   0.53538   0.54775   0.54997   0.55445
 Alpha virt. eigenvalues --    0.56252   0.57962   0.58510   0.59704   0.59828
 Alpha virt. eigenvalues --    0.61591   0.62265   0.63218   0.64182   0.65082
 Alpha virt. eigenvalues --    0.66783   0.68658   0.68825   0.69270   0.69765
 Alpha virt. eigenvalues --    0.70469   0.70498   0.71799   0.72627   0.73340
 Alpha virt. eigenvalues --    0.73734   0.73880   0.75321   0.75881   0.76292
 Alpha virt. eigenvalues --    0.77534   0.79491   0.79920   0.82307   0.83441
 Alpha virt. eigenvalues --    0.83637   0.85910   0.86462   0.86622   0.87815
 Alpha virt. eigenvalues --    0.88568   0.90782   0.94886   0.94937   0.96668
 Alpha virt. eigenvalues --    0.98733   1.01202   1.04415   1.04730   1.05266
 Alpha virt. eigenvalues --    1.06009   1.06399   1.07629   1.08102   1.11649
 Alpha virt. eigenvalues --    1.12109   1.14482   1.16853   1.18494   1.18619
 Alpha virt. eigenvalues --    1.20270   1.23162   1.23352   1.23662   1.28203
 Alpha virt. eigenvalues --    1.28459   1.30583   1.31529   1.32342   1.32863
 Alpha virt. eigenvalues --    1.33805   1.35991   1.37067   1.38383   1.39089
 Alpha virt. eigenvalues --    1.41778   1.42236   1.42540   1.44277   1.44358
 Alpha virt. eigenvalues --    1.46292   1.48824   1.50023   1.50732   1.52748
 Alpha virt. eigenvalues --    1.54299   1.56893   1.59162   1.60409   1.62351
 Alpha virt. eigenvalues --    1.63630   1.67126   1.69277   1.70150   1.70898
 Alpha virt. eigenvalues --    1.73748   1.74200   1.75587   1.77612   1.80084
 Alpha virt. eigenvalues --    1.82908   1.85228   1.87670   1.87852   1.92316
 Alpha virt. eigenvalues --    1.92325   1.92981   1.97778   1.98123   1.99685
 Alpha virt. eigenvalues --    2.01873   2.02822   2.04345   2.04869   2.07653
 Alpha virt. eigenvalues --    2.09568   2.12481   2.16550   2.17943   2.18636
 Alpha virt. eigenvalues --    2.20943   2.24342   2.25796   2.29225   2.29602
 Alpha virt. eigenvalues --    2.32692   2.34203   2.34445   2.35328   2.41987
 Alpha virt. eigenvalues --    2.45294   2.48070   2.49423   2.59034   2.59804
 Alpha virt. eigenvalues --    2.63643   2.72882   2.75606   2.80405   2.81775
 Alpha virt. eigenvalues --    2.82430   2.88514   2.95500   3.00854   3.07552
 Alpha virt. eigenvalues --    3.11155   3.17617   3.27733   3.27954   3.28450
 Alpha virt. eigenvalues --    3.31456   3.35252   3.38242   3.39354   3.45059
 Alpha virt. eigenvalues --    3.52314   3.59370   3.59621   3.74642   3.78415
 Alpha virt. eigenvalues --    3.81331   4.13718
          Condensed to atoms (all electrons):
              1          2          3          4          5          6
     1  C    9.333405   0.085733   0.155350  -1.556202   0.446026  -2.633853
     2  C    0.085733   9.947339  -0.402146  -1.021449  -1.021770   0.185834
     3  C    0.155350  -0.402146  10.444697  -3.086665  -1.122711  -1.204474
     4  C   -1.556202  -1.021449  -3.086665  13.881092  -1.610853  -0.245434
     5  C    0.446026  -1.021770  -1.122711  -1.610853  10.949643  -2.908294
     6  C   -2.633853   0.185834  -1.204474  -0.245434  -2.908294  12.856507
     7  H   -1.035748  -0.222735  -0.042058   0.129626  -0.260091   0.852681
     8  H    0.035203  -0.028389   0.877113  -1.452662   0.088966  -0.108118
     9  N    0.042886  -0.224234  -0.015848   0.206215   0.026426  -0.103884
    10  N    0.019905   0.113835  -0.220358  -0.266238   0.021700  -0.034936
    11  H    0.797664  -0.087029  -0.061709  -0.103269   0.696881  -1.944012
    12  N   -0.112942   0.005887  -0.187115  -0.059389  -0.350401   0.271913
    13  O   -0.079835   0.000873   0.012170  -0.020021   0.142658   0.020059
    14  O   -0.046602   0.010950   0.009777   0.100105   0.050218  -0.059253
              7          8          9         10         11         12
     1  C   -1.035748   0.035203   0.042886   0.019905   0.797664  -0.112942
     2  C   -0.222735  -0.028389  -0.224234   0.113835  -0.087029   0.005887
     3  C   -0.042058   0.877113  -0.015848  -0.220358  -0.061709  -0.187115
     4  C    0.129626  -1.452662   0.206215  -0.266238  -0.103269  -0.059389
     5  C   -0.260091   0.088966   0.026426   0.021700   0.696881  -0.350401
     6  C    0.852681  -0.108118  -0.103884  -0.034936  -1.944012   0.271913
     7  H    2.443707   0.005617  -0.013303   0.004085  -0.229650   0.014017
     8  H    0.005617   2.574913  -0.131736  -0.024914  -0.005755  -0.038159
     9  N   -0.013303  -0.131736   8.072804  -1.352415   0.010333  -0.015024
    10  N    0.004085  -0.024914  -1.352415   9.411405   0.000409  -0.000389
    11  H   -0.229650  -0.005755   0.010333   0.000409   2.899300  -0.132807
    12  N    0.014017  -0.038159  -0.015024  -0.000389  -0.132807   7.832030
    13  O   -0.001026  -0.009589   0.000246  -0.000045  -0.022094  -0.482916
    14  O   -0.000426  -0.021645   0.004742  -0.000600  -0.009597  -0.435897
             13         14
     1  C   -0.079835  -0.046602
     2  C    0.000873   0.010950
     3  C    0.012170   0.009777
     4  C   -0.020021   0.100105
     5  C    0.142658   0.050218
     6  C    0.020059  -0.059253
     7  H   -0.001026  -0.000426
     8  H   -0.009589  -0.021645
     9  N    0.000246   0.004742
    10  N   -0.000045  -0.000600
    11  H   -0.022094  -0.009597
    12  N   -0.482916  -0.435897
    13  O    9.176968  -0.054921
    14  O   -0.054921   9.131253
 Mulliken atomic charges:
              1
     1  C    0.549010
     2  C   -1.342700
     3  C    0.843977
     4  C    1.105147
     5  C    0.851602
     6  C    1.055264
     7  H   -0.644694
     8  H   -0.760844
     9  N    0.492792
    10  N   -0.671444
    11  H   -0.808666
    12  N    0.691188
    13  O   -0.682527
    14  O   -0.678105
 Sum of Mulliken atomic charges =   0.00000
 Mulliken charges with hydrogens summed into heavy atoms:
              1
     1  C   -0.095684
     2  C   -1.342700
     3  C    0.843977
     4  C    0.344303
     5  C    0.851602
     6  C    0.246597
     9  N    0.492792
    10  N   -0.671444
    12  N    0.691188
    13  O   -0.682527
    14  O   -0.678105
 Sum of Mulliken charges with hydrogens summed into heavy atoms =   0.00000
 APT atomic charges:
              1
     1  C    0.365050
     2  C    0.005118
     3  C   -0.476649
     4  C    1.006556
     5  C    0.235625
     6  C    0.212094
     7  H   -0.069443
     8  H   -0.214583
     9  N   -1.577637
    10  N    1.123743
    11  H   -0.195726
    12  N    0.668825
    13  O   -0.523530
    14  O   -0.559442
 Sum of APT charges=   0.00000
 APT Atomic charges with hydrogens summed into heavy atoms:
              1
     1  C    0.295606
     2  C    0.005118
     3  C   -0.476649
     4  C    0.791973
     5  C    0.235625
     6  C    0.016368
     7  H    0.000000
     8  H    0.000000
     9  N   -1.577637
    10  N    1.123743
    11  H    0.000000
    12  N    0.668825
    13  O   -0.523530
    14  O   -0.559442
 Sum of APT charges=   0.00000
 Electronic spatial extent (au):  <R**2>=           1813.8377
 Charge=              0.0000 electrons
 Dipole moment (field-independent basis, Debye):
    X=              3.4156    Y=             -1.0193    Z=              0.0000  Tot=              3.5645
 Quadrupole moment (field-independent basis, Debye-Ang):
   XX=            -71.8367   YY=            -61.9224   ZZ=            -61.6951
   XY=            -12.2957   XZ=              0.0000   YZ=              0.0000
 Traceless Quadrupole moment (field-independent basis, Debye-Ang):
   XX=             -6.6853   YY=              3.2290   ZZ=              3.4563
   XY=            -12.2957   XZ=              0.0000   YZ=              0.0000
 Octapole moment (field-independent basis, Debye-Ang**2):
  XXX=             28.7313  YYY=             -4.7341  ZZZ=              0.0000  XYY=             -4.8046
  XXY=            -14.1726  XXZ=              0.0000  XZZ=             -6.7689  YZZ=             -8.4542
  YYZ=              0.0000  XYZ=              0.0000
 Hexadecapole moment (field-independent basis, Debye-Ang**3):
 XXXX=          -1808.6449 YYYY=           -584.3635 ZZZZ=            -64.3775 XXXY=            -74.7949
 XXXZ=              0.0000 YYYX=            -52.2691 YYYZ=              0.0000 ZZZX=              0.0000
 ZZZY=              0.0000 XXYY=           -417.0491 XXZZ=           -278.7288 YYZZ=           -118.3777
 XXYZ=              0.0000 YYXZ=             -0.0001 ZZXY=             -4.5587
 N-N= 5.305255793279D+02 E-N=-2.332088146464D+03  KE= 5.416949860651D+02
  Exact polarizability:   0.000   0.000   0.000   0.000   0.000   0.000
 Approx polarizability: 257.695 -38.572 252.611   0.000   0.000  88.594
 Calling FoFJK, ICntrl=    100147 FMM=F ISym2X=0 I1Cent= 0 IOpClX= 0 NMat=1 NMatS=1 NMatT=0.
 -------------------------------------------------------------------
 Center     Atomic                   Forces (Hartrees/Bohr)
 Number     Number              X              Y              Z
 -------------------------------------------------------------------
      1        6           0.000007829    0.000019699   -0.000000128
      2        6          -0.000053822    0.000014148   -0.000000085
      3        6           0.000022694    0.000013947   -0.000000067
      4        6          -0.000003157   -0.000005140   -0.000000094
      5        6           0.000002019    0.000007553   -0.000000089
      6        6          -0.000000686   -0.000007813    0.000000779
      7        1          -0.000001016   -0.000002227    0.000000073
      8        1           0.000000506    0.000001930   -0.000000012
      9        7          -0.000016255   -0.000017446    0.000000084
     10        7           0.000042280   -0.000026568   -0.000000029
     11        1          -0.000000151    0.000001904   -0.000000494
     12        7           0.000004135   -0.000005679    0.000000066
     13        8          -0.000005048    0.000005614    0.000000003
     14        8           0.000000674    0.000000080   -0.000000006
 -------------------------------------------------------------------
 Cartesian Forces:  Max     0.000053822 RMS     0.000013450
 IRC-IRC-IRC-IRC-IRC-IRC-IRC-IRC-IRC-IRC-IRC-IRC-IRC-IRC-IRC-IRC-IRC-IRC
          ******** Start new reaction path calculation ********
 Supplied step size of   0.0100 bohr.
    Integration on MW PES will use step size of   0.0358 sqrt(amu)*bohr.
 Point Number:   0          Path Number:   1
 Calculating another point on the path.
 IRC-IRC-IRC-IRC-IRC-IRC-IRC-IRC-IRC-IRC-IRC-IRC-IRC-IRC-IRC-IRC-IRC-IRC
                          Input orientation:                          
 ---------------------------------------------------------------------
 Center     Atomic      Atomic             Coordinates (Angstroms)
 Number     Number       Type             X           Y           Z
 ---------------------------------------------------------------------
      1          6           0        0.460825    2.151958    0.000000
      2          6           0        1.673229    1.406393    0.000000
      3          6           0        1.420480    0.089991    0.000000
      4          6           0        0.262791   -0.678713    0.000000
      5          6           0       -0.876351    0.121179    0.000000
      6          6           0       -0.789789    1.528779    0.000000
      7          1           0        0.489846    3.244416    0.000000
      8          1           0        0.210782   -1.765210    0.000000
      9          7           0        2.762814   -0.795540    0.000000
     10          7           0        3.836648   -1.081556    0.000000
     11          1           0       -1.713265    2.105733    0.000010
     12          7           0       -2.193213   -0.534362    0.000000
     13          8           0       -3.188951    0.183843    0.000000
     14          8           0       -2.218686   -1.764359    0.000000
 ---------------------------------------------------------------------
                    Distance matrix (angstroms):
                    1          2          3          4          5
     1  C    0.000000
     2  C    1.423302   0.000000
     3  C    2.274345   1.340447   0.000000
     4  C    2.837590   2.517340   1.389657   0.000000
     5  C    2.431482   2.855194   2.297042   1.391931   0.000000
     6  C    1.397279   2.466057   2.637309   2.445597   1.410259
     7  H    1.092844   2.186030   3.288842   3.929694   3.408974
     8  H    3.925140   3.492537   2.214754   1.087741   2.177228
     9  N    3.739906   2.456767   1.608113   2.502751   3.752851
    10  N    4.674590   3.297010   2.685218   3.596490   4.864045
    11  H    2.174582   3.457950   3.726066   3.414372   2.153806
    12  N    3.776273   4.326189   3.667232   2.460243   1.471007
    13  O    4.146606   5.013524   4.610385   3.557882   2.313448
    14  O    4.745242   5.020027   4.084378   2.708571   2.314545
                    6          7          8          9         10
     6  C    0.000000
     7  H    2.140298   0.000000
     8  H    3.442601   5.017393   0.000000
     9  N    4.245403   4.635475   2.730041   0.000000
    10  N    5.312040   5.469472   3.689755   1.111272   0.000000
    11  H    1.088891   2.479979   4.322748   5.334104   6.400027
    12  N    2.495226   4.634433   2.700774   4.962904   6.054639
    13  O    2.750424   4.785463   3.918799   6.031807   7.138647
    14  O    3.589778   5.694205   2.429469   5.074835   6.093710
                   11         12         13         14
    11  H    0.000000
    12  N    2.683366   0.000000
    13  O    2.423078   1.227726   0.000000
    14  O    3.902955   1.230261   2.176443   0.000000
 Symmetry turned off by external request.
 Stoichiometry    C6H3N3O2
 Framework group  C1[X(C6H3N3O2)]
 Deg. of freedom    36
 Full point group                 C1      NOp   1
 Rotational constants (GHZ):      2.3958946      0.7189865      0.5530278
 Standard basis: Aug-CC-pVDZ (5D, 7F)
 Integral buffers will be    131072 words long.
 Raffenetti 2 integral format.
 Two-electron integral symmetry is turned off.
   280 basis functions,   506 primitive gaussians,   302 cartesian basis functions
    38 alpha electrons       38 beta electrons
       nuclear repulsion energy       530.4579908640 Hartrees.
 NAtoms=   14 NActive=   14 NUniq=   14 SFac= 1.00D+00 NAtFMM=   50 NAOKFM=F Big=F
 One-electron integrals computed using PRISM.
 NBasis=   280 RedAO= T  NBF=   280
 NBsUse=   280 1.00D-06 NBFU=   280
 Initial guess read from the read-write file.
 B after Tr=     0.000000    0.000000    0.000000
         Rot=    1.000000    0.000000    0.000000    0.000000 Ang=   0.00 deg.
 Harris functional with IExCor=  402 diagonalized for initial guess.
 ExpMin= 2.97D-02 ExpMax= 1.17D+04 ExpMxC= 4.01D+02 IAcc=3 IRadAn=         0 AccDes= 0.00D+00
 HarFok:  IExCor=  402 AccDes= 0.00D+00 IRadAn=         0 IDoV= 1
 ScaDFX=  1.000000  1.000000  1.000000  1.000000
 FoFCou: FMM=F IPFlag=           0 FMFlag=      100000 FMFlg1=           0
         NFxFlg=           0 DoJE=T BraDBF=F KetDBF=T FulRan=T
         Omega=  0.000000  0.000000  1.000000  0.000000  0.000000 ICntrl=     500 IOpCl=  0
         NMat0=    1 NMatS0=    1 NMatT0=    0 NMatD0=    1 NMtDS0=    0 NMtDT0=    0
         I1Cent=           4 NGrid=           0.
 Symmetry not used in FoFCou.
 Requested convergence on RMS density matrix=1.00D-08 within 128 cycles.
 Requested convergence on MAX density matrix=1.00D-06.
 Requested convergence on             energy=1.00D-06.
 No special actions if energy rises.
 SCF Done:  E(RB3LYP) =  -544.974274834     A.U. after   13 cycles
             Convg  =    0.2580D-08             -V/T =  2.0060
 QCSCF skips out because SCF is already converged.
 Range of M.O.s used for correlation:     1   280
 NBasis=   280 NAE=    38 NBE=    38 NFC=     0 NFV=     0
 NROrb=    280 NOA=    38 NOB=    38 NVA=   242 NVB=   242

 **** Warning!!: The largest alpha MO coefficient is  0.11278634D+03

 Symmetrizing basis deriv contribution to polar:
 IMax=3 JMax=2 DiffMx= 0.00D+00
 Calling FoFJK, ICntrl=      2147 FMM=F ISym2X=0 I1Cent= 0 IOpClX= 0 NMat=1 NMatS=1 NMatT=0.
 -------------------------------------------------------------------
 Center     Atomic                   Forces (Hartrees/Bohr)
 Number     Number              X              Y              Z
 -------------------------------------------------------------------
      1        6          -0.000034066    0.000098078   -0.000000127
      2        6          -0.000152338    0.000050171   -0.000000085
      3        6          -0.000221867    0.000277236   -0.000000067
      4        6          -0.000029296    0.000038957   -0.000000094
      5        6          -0.000104739    0.000074458   -0.000000089
      6        6          -0.000106830    0.000072644    0.000000778
      7        1          -0.000000830    0.000010257    0.000000073
      8        1           0.000017974    0.000008023   -0.000000012
      9        7           0.000291083   -0.000578290    0.000000083
     10        7           0.000512936   -0.000045728   -0.000000029
     11        1          -0.000017459    0.000011576   -0.000000494
     12        7          -0.000019503    0.000002882    0.000000066
     13        8          -0.000086344   -0.000015212    0.000000003
     14        8          -0.000048721   -0.000005051   -0.000000006
 -------------------------------------------------------------------
 Cartesian Forces:  Max     0.000578290 RMS     0.000145890
 IRC-IRC-IRC-IRC-IRC-IRC-IRC-IRC-IRC-IRC-IRC-IRC-IRC-IRC-IRC-IRC-IRC-IRC
 Pt  1 Step number   1 out of a maximum of1000
 CORRECTOR INTEGRATION CONVERGENCE:
   Recorrection delta-x convergence threshold:    0.010000
   Delta-x Convergence Met
 Point Number:   1          Path Number:   1
   CHANGE IN THE REACTION COORDINATE =    0.03573
   NET REACTION COORDINATE UP TO THIS POINT =    0.03573
  # OF POINTS ALONG THE PATH =   1
  # OF STEPS =   1

 Calculating another point on the path.
 IRC-IRC-IRC-IRC-IRC-IRC-IRC-IRC-IRC-IRC-IRC-IRC-IRC-IRC-IRC-IRC-IRC-IRC
                          Input orientation:                          
 ---------------------------------------------------------------------
 Center     Atomic      Atomic             Coordinates (Angstroms)
 Number     Number       Type             X           Y           Z
 ---------------------------------------------------------------------
      1          6           0        0.460450    2.152610    0.000000
      2          6           0        1.672369    1.406528    0.000000
      3          6           0        1.418870    0.091772    0.000000
      4          6           0        0.262718   -0.678257    0.000000
      5          6           0       -0.876806    0.121588    0.000000
      6          6           0       -0.790302    1.529167    0.000001
      7          1           0        0.489511    3.245064    0.000000
      8          1           0        0.211616   -1.764769    0.000000
      9          7           0        2.764646   -0.798586    0.000000
     10          7           0        3.839041   -1.081784    0.000000
     11          1           0       -1.713748    2.106194    0.000001
     12          7           0       -2.193467   -0.534336    0.000000
     13          8           0       -3.189317    0.183731    0.000000
     14          8           0       -2.218887   -1.764357    0.000000
 ---------------------------------------------------------------------
                    Distance matrix (angstroms):
                    1          2          3          4          5
     1  C    0.000000
     2  C    1.423160   0.000000
     3  C    2.272800   1.338972   0.000000
     4  C    2.837764   2.516634   1.389112   0.000000
     5  C    2.431728   2.854709   2.295869   1.392217   0.000000
     6  C    1.397520   2.465722   2.635630   2.445726   1.410235
     7  H    1.092841   2.186176   3.287394   3.929871   3.409241
     8  H    3.925274   3.491550   2.214544   1.087713   2.177844
     9  N    3.744179   2.460813   1.613645   2.504820   3.755914
    10  N    4.677198   3.299419   2.689696   3.599016   4.866962
    11  H    2.174694   3.457647   3.724405   3.414614   2.153865
    12  N    3.776633   4.325696   3.666196   2.460399   1.470998
    13  O    4.146961   5.013105   4.609105   3.558030   2.313347
    14  O    4.745680   5.019601   4.083931   2.708871   2.314730
                    6          7          8          9         10
     6  C    0.000000
     7  H    2.140613   0.000000
     8  H    3.442943   5.017534   0.000000
     9  N    4.249246   4.639757   2.729738   0.000000
    10  N    5.314874   5.471834   3.691163   1.111092   0.000000
    11  H    1.088905   2.480197   4.323353   5.337955   6.402865
    12  N    2.495379   4.634893   2.701554   4.965150   6.057298
    13  O    2.750540   4.785973   3.919567   6.034453   7.141383
    14  O    3.590008   5.694710   2.430504   5.076250   6.096262
                   11         12         13         14
    11  H    0.000000
    12  N    2.683753   0.000000
    13  O    2.423462   1.227737   0.000000
    14  O    3.903375   1.230284   2.176415   0.000000
 Symmetry turned off by external request.
 Stoichiometry    C6H3N3O2
 Framework group  C1[X(C6H3N3O2)]
 Deg. of freedom    36
 Full point group                 C1      NOp   1
 Rotational constants (GHZ):      2.3944183      0.7185860      0.5527122
 Standard basis: Aug-CC-pVDZ (5D, 7F)
 Integral buffers will be    131072 words long.
 Raffenetti 2 integral format.
 Two-electron integral symmetry is turned off.
   280 basis functions,   506 primitive gaussians,   302 cartesian basis functions
    38 alpha electrons       38 beta electrons
       nuclear repulsion energy       530.3638323632 Hartrees.
 NAtoms=   14 NActive=   14 NUniq=   14 SFac= 1.00D+00 NAtFMM=   50 NAOKFM=F Big=F
 One-electron integrals computed using PRISM.
 NBasis=   280 RedAO= T  NBF=   280
 NBsUse=   280 1.00D-06 NBFU=   280
 Initial guess read from the read-write file.
 B after Tr=     0.000000    0.000000    0.000000
         Rot=    1.000000    0.000000    0.000000    0.000000 Ang=   0.00 deg.
 Harris functional with IExCor=  402 diagonalized for initial guess.
 ExpMin= 2.97D-02 ExpMax= 1.17D+04 ExpMxC= 4.01D+02 IAcc=3 IRadAn=         0 AccDes= 0.00D+00
 HarFok:  IExCor=  402 AccDes= 0.00D+00 IRadAn=         0 IDoV= 1
 ScaDFX=  1.000000  1.000000  1.000000  1.000000
 FoFCou: FMM=F IPFlag=           0 FMFlag=      100000 FMFlg1=           0
         NFxFlg=           0 DoJE=T BraDBF=F KetDBF=T FulRan=T
         Omega=  0.000000  0.000000  1.000000  0.000000  0.000000 ICntrl=     500 IOpCl=  0
         NMat0=    1 NMatS0=    1 NMatT0=    0 NMatD0=    1 NMtDS0=    0 NMtDT0=    0
         I1Cent=           4 NGrid=           0.
 Symmetry not used in FoFCou.
 Requested convergence on RMS density matrix=1.00D-08 within 128 cycles.
 Requested convergence on MAX density matrix=1.00D-06.
 Requested convergence on             energy=1.00D-06.
 No special actions if energy rises.
 SCF Done:  E(RB3LYP) =  -544.974287873     A.U. after   12 cycles
             Convg  =    0.8909D-08             -V/T =  2.0060
 QCSCF skips out because SCF is already converged.
 Range of M.O.s used for correlation:     1   280
 NBasis=   280 NAE=    38 NBE=    38 NFC=     0 NFV=     0
 NROrb=    280 NOA=    38 NOB=    38 NVA=   242 NVB=   242

 **** Warning!!: The largest alpha MO coefficient is  0.11286173D+03

 Symmetrizing basis deriv contribution to polar:
 IMax=3 JMax=2 DiffMx= 0.00D+00
 Calling FoFJK, ICntrl=      2147 FMM=F ISym2X=0 I1Cent= 0 IOpClX= 0 NMat=1 NMatS=1 NMatT=0.
 -------------------------------------------------------------------
 Center     Atomic                   Forces (Hartrees/Bohr)
 Number     Number              X              Y              Z
 -------------------------------------------------------------------
      1        6          -0.000142282    0.000234010    0.000000011
      2        6          -0.000353694   -0.000012886    0.000000009
      3        6          -0.000602132    0.000537410   -0.000000002
      4        6          -0.000035651    0.000121081    0.000000003
      5        6          -0.000064365    0.000102226    0.000000010
      6        6          -0.000088389    0.000066728   -0.000000019
      7        1          -0.000013506    0.000011160    0.000000001
      8        1           0.000007027    0.000008328    0.000000000
      9        7           0.000682906   -0.001136398   -0.000000015
     10        7           0.000772543    0.000006585    0.000000004
     11        1           0.000001549    0.000003920   -0.000000008
     12        7          -0.000083359    0.000031996    0.000000004
     13        8          -0.000094827   -0.000017369    0.000000002
     14        8           0.000014180    0.000043206   -0.000000001
 -------------------------------------------------------------------
 Cartesian Forces:  Max     0.001136398 RMS     0.000278979
 IRC-IRC-IRC-IRC-IRC-IRC-IRC-IRC-IRC-IRC-IRC-IRC-IRC-IRC-IRC-IRC-IRC-IRC
 Pt  2 Step number   1 out of a maximum of1000
 CORRECTOR INTEGRATION CONVERGENCE:
   Recorrection delta-x convergence threshold:    0.010000
   Delta-x Convergence Met
 Point Number:   2          Path Number:   1
   CHANGE IN THE REACTION COORDINATE =    0.03577
   NET REACTION COORDINATE UP TO THIS POINT =    0.07151
  # OF POINTS ALONG THE PATH =   2
  # OF STEPS =   1

 Calculating another point on the path.
 IRC-IRC-IRC-IRC-IRC-IRC-IRC-IRC-IRC-IRC-IRC-IRC-IRC-IRC-IRC-IRC-IRC-IRC
                          Input orientation:                          
 ---------------------------------------------------------------------
 Center     Atomic      Atomic             Coordinates (Angstroms)
 Number     Number       Type             X           Y           Z
 ---------------------------------------------------------------------
      1          6           0        0.460017    2.153336    0.000000
      2          6           0        1.671222    1.406477    0.000000
      3          6           0        1.416941    0.093498    0.000000
      4          6           0        0.262589   -0.677976    0.000000
      5          6           0       -0.877084    0.121925    0.000000
      6          6           0       -0.790628    1.529399    0.000001
      7          1           0        0.489054    3.245757    0.000000
      8          1           0        0.212117   -1.764488    0.000000
      9          7           0        2.766342   -0.801696    0.000000
     10          7           0        3.841300   -1.081770    0.000000
     11          1           0       -1.714058    2.106394    0.000001
     12          7           0       -2.193608   -0.534218    0.000000
     13          8           0       -3.189522    0.183717    0.000000
     14          8           0       -2.218822   -1.764249    0.000000
 ---------------------------------------------------------------------
                    Distance matrix (angstroms):
                    1          2          3          4          5
     1  C    0.000000
     2  C    1.422960   0.000000
     3  C    2.271264   1.337375   0.000000
     4  C    2.838187   2.515788   1.388416   0.000000
     5  C    2.431968   2.853758   2.294202   1.392371   0.000000
     6  C    1.397644   2.464916   2.633472   2.445766   1.410127
     7  H    1.092807   2.186429   3.285988   3.930263   3.409495
     8  H    3.925660   3.490560   2.214433   1.087684   2.178283
     9  N    3.748513   2.464816   1.619338   2.506808   3.758674
    10  N    4.679635   3.301608   2.694210   3.601419   4.869500
    11  H    2.174582   3.456878   3.722218   3.414652   2.153751
    12  N    3.776860   4.324720   3.664709   2.460400   1.470972
    13  O    4.147111   5.012182   4.607347   3.558031   2.313263
    14  O    4.745909   5.018560   4.082891   2.708762   2.314717
                    6          7          8          9         10
     6  C    0.000000
     7  H    2.140904   0.000000
     8  H    3.443137   5.017894   0.000000
     9  N    4.252768   4.644128   2.729659   0.000000
    10  N    5.317232   5.474034   3.692841   1.110844   0.000000
    11  H    1.088874   2.480293   4.323642   5.341439   6.405185
    12  N    2.495370   4.635179   2.702050   4.967157   6.059696
    13  O    2.750555   4.786231   3.920032   6.036833   7.143802
    14  O    3.589966   5.694976   2.430938   5.077240   6.098430
                   11         12         13         14
    11  H    0.000000
    12  N    2.683803   0.000000
    13  O    2.423567   1.227711   0.000000
    14  O    3.903417   1.230289   2.176426   0.000000
 Symmetry turned off by external request.
 Stoichiometry    C6H3N3O2
 Framework group  C1[X(C6H3N3O2)]
 Deg. of freedom    36
 Full point group                 C1      NOp   1
 Rotational constants (GHZ):      2.3931513      0.7182865      0.5524675
 Standard basis: Aug-CC-pVDZ (5D, 7F)
 Integral buffers will be    131072 words long.
 Raffenetti 2 integral format.
 Two-electron integral symmetry is turned off.
   280 basis functions,   506 primitive gaussians,   302 cartesian basis functions
    38 alpha electrons       38 beta electrons
       nuclear repulsion energy       530.2990451480 Hartrees.
 NAtoms=   14 NActive=   14 NUniq=   14 SFac= 1.00D+00 NAtFMM=   50 NAOKFM=F Big=F
 One-electron integrals computed using PRISM.
 NBasis=   280 RedAO= T  NBF=   280
 NBsUse=   280 1.00D-06 NBFU=   280
 Initial guess read from the read-write file.
 B after Tr=     0.000000    0.000000    0.000000
         Rot=    1.000000    0.000000    0.000000    0.000000 Ang=   0.00 deg.
 Harris functional with IExCor=  402 diagonalized for initial guess.
 ExpMin= 2.97D-02 ExpMax= 1.17D+04 ExpMxC= 4.01D+02 IAcc=3 IRadAn=         0 AccDes= 0.00D+00
 HarFok:  IExCor=  402 AccDes= 0.00D+00 IRadAn=         0 IDoV= 1
 ScaDFX=  1.000000  1.000000  1.000000  1.000000
 FoFCou: FMM=F IPFlag=           0 FMFlag=      100000 FMFlg1=           0
         NFxFlg=           0 DoJE=T BraDBF=F KetDBF=T FulRan=T
         Omega=  0.000000  0.000000  1.000000  0.000000  0.000000 ICntrl=     500 IOpCl=  0
         NMat0=    1 NMatS0=    1 NMatT0=    0 NMatD0=    1 NMtDS0=    0 NMtDT0=    0
         I1Cent=           4 NGrid=           0.
 Symmetry not used in FoFCou.
 Requested convergence on RMS density matrix=1.00D-08 within 128 cycles.
 Requested convergence on MAX density matrix=1.00D-06.
 Requested convergence on             energy=1.00D-06.
 No special actions if energy rises.
 SCF Done:  E(RB3LYP) =  -544.974309833     A.U. after   13 cycles
             Convg  =    0.2533D-08             -V/T =  2.0060
 QCSCF skips out because SCF is already converged.
 Range of M.O.s used for correlation:     1   280
 NBasis=   280 NAE=    38 NBE=    38 NFC=     0 NFV=     0
 NROrb=    280 NOA=    38 NOB=    38 NVA=   242 NVB=   242

 **** Warning!!: The largest alpha MO coefficient is  0.11299850D+03

 Symmetrizing basis deriv contribution to polar:
 IMax=3 JMax=2 DiffMx= 0.00D+00
 Calling FoFJK, ICntrl=      2147 FMM=F ISym2X=0 I1Cent= 0 IOpClX= 0 NMat=1 NMatS=1 NMatT=0.
 -------------------------------------------------------------------
 Center     Atomic                   Forces (Hartrees/Bohr)
 Number     Number              X              Y              Z
 -------------------------------------------------------------------
      1        6          -0.000192502    0.000327638    0.000000007
      2        6          -0.000506948    0.000003998    0.000000010
      3        6          -0.000878516    0.000793115    0.000000001
      4        6          -0.000066607    0.000137478    0.000000005
      5        6          -0.000151303    0.000160091    0.000000003
      6        6          -0.000168863    0.000126115   -0.000000020
      7        1          -0.000016772    0.000026278    0.000000001
      8        1           0.000023544    0.000011859    0.000000001
      9        7           0.000959779   -0.001701613   -0.000000014
     10        7           0.001214805    0.000017177    0.000000004
     11        1          -0.000012752    0.000008969   -0.000000002
     12        7          -0.000082265    0.000054346    0.000000003
     13        8          -0.000140235   -0.000020289    0.000000003
     14        8           0.000018635    0.000054839    0.000000000
 -------------------------------------------------------------------
 Cartesian Forces:  Max     0.001701613 RMS     0.000415368
 IRC-IRC-IRC-IRC-IRC-IRC-IRC-IRC-IRC-IRC-IRC-IRC-IRC-IRC-IRC-IRC-IRC-IRC
 Pt  3 Step number   1 out of a maximum of1000
 CORRECTOR INTEGRATION CONVERGENCE:
   Recorrection delta-x convergence threshold:    0.010000
   Delta-x Convergence Met
 Point Number:   3          Path Number:   1
   CHANGE IN THE REACTION COORDINATE =    0.03579
   NET REACTION COORDINATE UP TO THIS POINT =    0.10729
  # OF POINTS ALONG THE PATH =   3
  # OF STEPS =   1

 Calculating another point on the path.
 IRC-IRC-IRC-IRC-IRC-IRC-IRC-IRC-IRC-IRC-IRC-IRC-IRC-IRC-IRC-IRC-IRC-IRC
                          Input orientation:                          
 ---------------------------------------------------------------------
 Center     Atomic      Atomic             Coordinates (Angstroms)
 Number     Number       Type             X           Y           Z
 ---------------------------------------------------------------------
      1          6           0        0.459602    2.154041    0.000000
      2          6           0        1.670136    1.406461    0.000000
      3          6           0        1.415055    0.095212    0.000000
      4          6           0        0.262451   -0.677687    0.000000
      5          6           0       -0.877410    0.122271    0.000000
      6          6           0       -0.790991    1.529665    0.000000
      7          1           0        0.488629    3.246439    0.000000
      8          1           0        0.212702   -1.764204    0.000000
      9          7           0        2.768050   -0.804812    0.000000
     10          7           0        3.843578   -1.081740    0.000000
     11          1           0       -1.714411    2.106637    0.000001
     12          7           0       -2.193754   -0.534116    0.000000
     13          8           0       -3.189744    0.183686    0.000000
     14          8           0       -2.218787   -1.764161    0.000000
 ---------------------------------------------------------------------
                    Distance matrix (angstroms):
                    1          2          3          4          5
     1  C    0.000000
     2  C    1.422768   0.000000
     3  C    2.269729   1.335829   0.000000
     4  C    2.838583   2.515005   1.387757   0.000000
     5  C    2.432218   2.852916   2.292625   1.392557   0.000000
     6  C    1.397794   2.464209   2.631406   2.445842   1.410044
     7  H    1.092784   2.186659   3.284585   3.930639   3.409764
     8  H    3.926016   3.489588   2.214290   1.087655   2.178792
     9  N    3.752832   2.468835   1.625004   2.508823   3.761498
    10  N    4.682048   3.303785   2.698692   3.603850   4.872101
    11  H    2.174529   3.456212   3.720133   3.414739   2.153666
    12  N    3.777100   4.323827   3.663272   2.460397   1.470920
    13  O    4.147290   5.011347   4.605649   3.558034   2.313149
    14  O    4.746164   5.017625   4.081921   2.708683   2.314718
                    6          7          8          9         10
     6  C    0.000000
     7  H    2.141202   0.000000
     8  H    3.443395   5.018235   0.000000
     9  N    4.256355   4.648484   2.729512   0.000000
    10  N    5.319649   5.476205   3.694458   1.110608   0.000000
    11  H    1.088853   2.480431   4.324023   5.344997   6.407573
    12  N    2.495382   4.635491   2.702619   4.969183   6.062118
    13  O    2.750576   4.786532   3.920576   6.039242   7.146252
    14  O    3.589970   5.695280   2.431489   5.078277   6.100653
                   11         12         13         14
    11  H    0.000000
    12  N    2.683905   0.000000
    13  O    2.423705   1.227695   0.000000
    14  O    3.903520   1.230300   2.176434   0.000000
 Symmetry turned off by external request.
 Stoichiometry    C6H3N3O2
 Framework group  C1[X(C6H3N3O2)]
 Deg. of freedom    36
 Full point group                 C1      NOp   1
 Rotational constants (GHZ):      2.3918594      0.7179731      0.5522132
 Standard basis: Aug-CC-pVDZ (5D, 7F)
 Integral buffers will be    131072 words long.
 Raffenetti 2 integral format.
 Two-electron integral symmetry is turned off.
   280 basis functions,   506 primitive gaussians,   302 cartesian basis functions
    38 alpha electrons       38 beta electrons
       nuclear repulsion energy       530.2299085221 Hartrees.
 NAtoms=   14 NActive=   14 NUniq=   14 SFac= 1.00D+00 NAtFMM=   50 NAOKFM=F Big=F
 One-electron integrals computed using PRISM.
 NBasis=   280 RedAO= T  NBF=   280
 NBsUse=   280 1.00D-06 NBFU=   280
 Initial guess read from the read-write file.
 B after Tr=     0.000000    0.000000    0.000000
         Rot=    1.000000    0.000000    0.000000    0.000000 Ang=   0.00 deg.
 Harris functional with IExCor=  402 diagonalized for initial guess.
 ExpMin= 2.97D-02 ExpMax= 1.17D+04 ExpMxC= 4.01D+02 IAcc=3 IRadAn=         0 AccDes= 0.00D+00
 HarFok:  IExCor=  402 AccDes= 0.00D+00 IRadAn=         0 IDoV= 1
 ScaDFX=  1.000000  1.000000  1.000000  1.000000
 FoFCou: FMM=F IPFlag=           0 FMFlag=      100000 FMFlg1=           0
         NFxFlg=           0 DoJE=T BraDBF=F KetDBF=T FulRan=T
         Omega=  0.000000  0.000000  1.000000  0.000000  0.000000 ICntrl=     500 IOpCl=  0
         NMat0=    1 NMatS0=    1 NMatT0=    0 NMatD0=    1 NMtDS0=    0 NMtDT0=    0
         I1Cent=           4 NGrid=           0.
 Symmetry not used in FoFCou.
 Requested convergence on RMS density matrix=1.00D-08 within 128 cycles.
 Requested convergence on MAX density matrix=1.00D-06.
 Requested convergence on             energy=1.00D-06.
 No special actions if energy rises.
 SCF Done:  E(RB3LYP) =  -544.974340424     A.U. after   12 cycles
             Convg  =    0.9576D-08             -V/T =  2.0060
 QCSCF skips out because SCF is already converged.
 Range of M.O.s used for correlation:     1   280
 NBasis=   280 NAE=    38 NBE=    38 NFC=     0 NFV=     0
 NROrb=    280 NOA=    38 NOB=    38 NVA=   242 NVB=   242

 **** Warning!!: The largest alpha MO coefficient is  0.11310560D+03

 Symmetrizing basis deriv contribution to polar:
 IMax=3 JMax=2 DiffMx= 0.00D+00
 Calling FoFJK, ICntrl=      2147 FMM=F ISym2X=0 I1Cent= 0 IOpClX= 0 NMat=1 NMatS=1 NMatT=0.
 -------------------------------------------------------------------
 Center     Atomic                   Forces (Hartrees/Bohr)
 Number     Number              X              Y              Z
 -------------------------------------------------------------------
      1        6          -0.000263220    0.000441968    0.000000005
      2        6          -0.000676559   -0.000001470    0.000000009
      3        6          -0.001169587    0.001052883    0.000000001
      4        6          -0.000090749    0.000176816    0.000000004
      5        6          -0.000202884    0.000213772    0.000000001
      6        6          -0.000228113    0.000167341   -0.000000014
      7        1          -0.000022627    0.000034995    0.000000001
      8        1           0.000029679    0.000015882    0.000000001
      9        7           0.001254808   -0.002259060   -0.000000013
     10        7           0.001642671    0.000021941    0.000000003
     11        1          -0.000017710    0.000011983   -0.000000003
     12        7          -0.000106683    0.000074332    0.000000002
     13        8          -0.000180320   -0.000024425    0.000000003
     14        8           0.000031294    0.000073042    0.000000000
 -------------------------------------------------------------------
 Cartesian Forces:  Max     0.002259060 RMS     0.000552950
 IRC-IRC-IRC-IRC-IRC-IRC-IRC-IRC-IRC-IRC-IRC-IRC-IRC-IRC-IRC-IRC-IRC-IRC
 Pt  4 Step number   1 out of a maximum of1000
 CORRECTOR INTEGRATION CONVERGENCE:
   Recorrection delta-x convergence threshold:    0.010000
   Delta-x Convergence Met
 Point Number:   4          Path Number:   1
   CHANGE IN THE REACTION COORDINATE =    0.03579
   NET REACTION COORDINATE UP TO THIS POINT =    0.14309
  # OF POINTS ALONG THE PATH =   4
  # OF STEPS =   1

 Calculating another point on the path.
 IRC-IRC-IRC-IRC-IRC-IRC-IRC-IRC-IRC-IRC-IRC-IRC-IRC-IRC-IRC-IRC-IRC-IRC
                          Input orientation:                          
 ---------------------------------------------------------------------
 Center     Atomic      Atomic             Coordinates (Angstroms)
 Number     Number       Type             X           Y           Z
 ---------------------------------------------------------------------
      1          6           0        0.459175    2.154753    0.000000
      2          6           0        1.669043    1.406449    0.000000
      3          6           0        1.413173    0.096914    0.000000
      4          6           0        0.262306   -0.677404    0.000000
      5          6           0       -0.877737    0.122617    0.000000
      6          6           0       -0.791361    1.529932    0.000000
      7          1           0        0.488193    3.247127    0.000000
      8          1           0        0.213262   -1.763921    0.000000
      9          7           0        2.769767   -0.807923    0.000000
     10          7           0        3.845863   -1.081715    0.000000
     11          1           0       -1.714772    2.106876    0.000001
     12          7           0       -2.193899   -0.534013    0.000000
     13          8           0       -3.189960    0.183658    0.000000
     14          8           0       -2.218748   -1.764073    0.000000
 ---------------------------------------------------------------------
                    Distance matrix (angstroms):
                    1          2          3          4          5
     1  C    0.000000
     2  C    1.422582   0.000000
     3  C    2.268218   1.334298   0.000000
     4  C    2.838991   2.514230   1.387106   0.000000
     5  C    2.432470   2.852072   2.291055   1.392743   0.000000
     6  C    1.397941   2.463501   2.629356   2.445925   1.409963
     7  H    1.092760   2.186894   3.283205   3.931027   3.410033
     8  H    3.926383   3.488631   2.214158   1.087624   2.179291
     9  N    3.757164   2.472860   1.630667   2.510856   3.764331
    10  N    4.684483   3.305980   2.703173   3.606293   4.874712
    11  H    2.174474   3.455546   3.718062   3.414828   2.153580
    12  N    3.777335   4.322929   3.661835   2.460387   1.470866
    13  O    4.147457   5.010502   4.603951   3.558029   2.313029
    14  O    4.746416   5.016685   4.080946   2.708593   2.314716
                    6          7          8          9         10
     6  C    0.000000
     7  H    2.141499   0.000000
     8  H    3.443652   5.018585   0.000000
     9  N    4.259952   4.652850   2.729404   0.000000
    10  N    5.322081   5.478396   3.696105   1.110381   0.000000
    11  H    1.088830   2.480570   4.324394   5.348564   6.409974
    12  N    2.495392   4.635800   2.703165   4.971218   6.064545
    13  O    2.750588   4.786821   3.921096   6.041654   7.148705
    14  O    3.589973   5.695582   2.432010   5.079321   6.102877
                   11         12         13         14
    11  H    0.000000
    12  N    2.684000   0.000000
    13  O    2.423829   1.227677   0.000000
    14  O    3.903618   1.230311   2.176444   0.000000
 Symmetry turned off by external request.
 Stoichiometry    C6H3N3O2
 Framework group  C1[X(C6H3N3O2)]
 Deg. of freedom    36
 Full point group                 C1      NOp   1
 Rotational constants (GHZ):      2.3905575      0.7176591      0.5519581
 Standard basis: Aug-CC-pVDZ (5D, 7F)
 Integral buffers will be    131072 words long.
 Raffenetti 2 integral format.
 Two-electron integral symmetry is turned off.
   280 basis functions,   506 primitive gaussians,   302 cartesian basis functions
    38 alpha electrons       38 beta electrons
       nuclear repulsion energy       530.1606665063 Hartrees.
 NAtoms=   14 NActive=   14 NUniq=   14 SFac= 1.00D+00 NAtFMM=   50 NAOKFM=F Big=F
 One-electron integrals computed using PRISM.
 NBasis=   280 RedAO= T  NBF=   280
 NBsUse=   280 1.00D-06 NBFU=   280
 Initial guess read from the read-write file.
 B after Tr=     0.000000    0.000000    0.000000
         Rot=    1.000000    0.000000    0.000000    0.000000 Ang=   0.00 deg.
 Harris functional with IExCor=  402 diagonalized for initial guess.
 ExpMin= 2.97D-02 ExpMax= 1.17D+04 ExpMxC= 4.01D+02 IAcc=3 IRadAn=         0 AccDes= 0.00D+00
 HarFok:  IExCor=  402 AccDes= 0.00D+00 IRadAn=         0 IDoV= 1
 ScaDFX=  1.000000  1.000000  1.000000  1.000000
 FoFCou: FMM=F IPFlag=           0 FMFlag=      100000 FMFlg1=           0
         NFxFlg=           0 DoJE=T BraDBF=F KetDBF=T FulRan=T
         Omega=  0.000000  0.000000  1.000000  0.000000  0.000000 ICntrl=     500 IOpCl=  0
         NMat0=    1 NMatS0=    1 NMatT0=    0 NMatD0=    1 NMtDS0=    0 NMtDT0=    0
         I1Cent=           4 NGrid=           0.
 Symmetry not used in FoFCou.
 Requested convergence on RMS density matrix=1.00D-08 within 128 cycles.
 Requested convergence on MAX density matrix=1.00D-06.
 Requested convergence on             energy=1.00D-06.
 No special actions if energy rises.
 SCF Done:  E(RB3LYP) =  -544.974379703     A.U. after   12 cycles
             Convg  =    0.9004D-08             -V/T =  2.0060
 QCSCF skips out because SCF is already converged.
 Range of M.O.s used for correlation:     1   280
 NBasis=   280 NAE=    38 NBE=    38 NFC=     0 NFV=     0
 NROrb=    280 NOA=    38 NOB=    38 NVA=   242 NVB=   242

 **** Warning!!: The largest alpha MO coefficient is  0.11319765D+03

 Symmetrizing basis deriv contribution to polar:
 IMax=3 JMax=2 DiffMx= 0.00D+00
 Calling FoFJK, ICntrl=      2147 FMM=F ISym2X=0 I1Cent= 0 IOpClX= 0 NMat=1 NMatS=1 NMatT=0.
 -------------------------------------------------------------------
 Center     Atomic                   Forces (Hartrees/Bohr)
 Number     Number              X              Y              Z
 -------------------------------------------------------------------
      1        6          -0.000332517    0.000552194    0.000000004
      2        6          -0.000848870    0.000001634    0.000000009
      3        6          -0.001457845    0.001306958    0.000000002
      4        6          -0.000116803    0.000216166    0.000000004
      5        6          -0.000247214    0.000264610   -0.000000001
      6        6          -0.000287551    0.000209780   -0.000000013
      7        1          -0.000027127    0.000045360    0.000000001
      8        1           0.000036883    0.000018371    0.000000001
      9        7           0.001577426   -0.002824102   -0.000000011
     10        7           0.002037610    0.000035191    0.000000002
     11        1          -0.000024583    0.000016334   -0.000000002
     12        7          -0.000128475    0.000091756    0.000000001
     13        8          -0.000223528   -0.000027714    0.000000003
     14        8           0.000042592    0.000093462    0.000000000
 -------------------------------------------------------------------
 Cartesian Forces:  Max     0.002824102 RMS     0.000690000
 IRC-IRC-IRC-IRC-IRC-IRC-IRC-IRC-IRC-IRC-IRC-IRC-IRC-IRC-IRC-IRC-IRC-IRC
 Pt  5 Step number   1 out of a maximum of1000
 CORRECTOR INTEGRATION CONVERGENCE:
   Recorrection delta-x convergence threshold:    0.010000
   Delta-x Convergence Met
 Point Number:   5          Path Number:   1
   CHANGE IN THE REACTION COORDINATE =    0.03579
   NET REACTION COORDINATE UP TO THIS POINT =    0.17888
  # OF POINTS ALONG THE PATH =   5
  # OF STEPS =   1

 Calculating another point on the path.
 IRC-IRC-IRC-IRC-IRC-IRC-IRC-IRC-IRC-IRC-IRC-IRC-IRC-IRC-IRC-IRC-IRC-IRC
                          Input orientation:                          
 ---------------------------------------------------------------------
 Center     Atomic      Atomic             Coordinates (Angstroms)
 Number     Number       Type             X           Y           Z
 ---------------------------------------------------------------------
      1          6           0        0.458743    2.155469    0.000000
      2          6           0        1.667946    1.406444    0.000000
      3          6           0        1.411293    0.098605    0.000000
      4          6           0        0.262158   -0.677129    0.000000
      5          6           0       -0.878058    0.122961    0.000000
      6          6           0       -0.791735    1.530203    0.000000
      7          1           0        0.487768    3.247821    0.000000
      8          1           0        0.213820   -1.763647    0.000000
      9          7           0        2.771487   -0.811040    0.000000
     10          7           0        3.848140   -1.081682    0.000000
     11          1           0       -1.715143    2.107116    0.000001
     12          7           0       -2.194040   -0.533910    0.000000
     13          8           0       -3.190175    0.183632    0.000000
     14          8           0       -2.218705   -1.763983    0.000000
 ---------------------------------------------------------------------
                    Distance matrix (angstroms):
                    1          2          3          4          5
     1  C    0.000000
     2  C    1.422396   0.000000
     3  C    2.266724   1.332784   0.000000
     4  C    2.839411   2.513467   1.386462   0.000000
     5  C    2.432719   2.851221   2.289480   1.392923   0.000000
     6  C    1.398088   2.462792   2.627319   2.446018   1.409887
     7  H    1.092738   2.187119   3.281838   3.931429   3.410312
     8  H    3.926762   3.487687   2.214030   1.087593   2.179791
     9  N    3.761510   2.476901   1.636332   2.512900   3.767166
    10  N    4.686913   3.308174   2.707638   3.608730   4.877306
    11  H    2.174423   3.454885   3.716008   3.414929   2.153505
    12  N    3.777567   4.322026   3.660396   2.460370   1.470812
    13  O    4.147619   5.009652   4.602254   3.558021   2.312913
    14  O    4.746665   5.015741   4.079966   2.708493   2.314712
                    6          7          8          9         10
     6  C    0.000000
     7  H    2.141807   0.000000
     8  H    3.443921   5.018951   0.000000
     9  N    4.263563   4.657223   2.729308   0.000000
    10  N    5.324508   5.480575   3.697751   1.110148   0.000000
    11  H    1.088812   2.480730   4.324779   5.352148   6.412375
    12  N    2.495400   4.636117   2.703710   4.973255   6.066959
    13  O    2.750595   4.787120   3.921617   6.044071   7.151147
    14  O    3.589973   5.695891   2.432526   5.080366   6.105092
                   11         12         13         14
    11  H    0.000000
    12  N    2.684094   0.000000
    13  O    2.423946   1.227661   0.000000
    14  O    3.903714   1.230320   2.176455   0.000000
 Symmetry turned off by external request.
 Stoichiometry    C6H3N3O2
 Framework group  C1[X(C6H3N3O2)]
 Deg. of freedom    36
 Full point group                 C1      NOp   1
 Rotational constants (GHZ):      2.3892495      0.7173463      0.5517034
 Standard basis: Aug-CC-pVDZ (5D, 7F)
 Integral buffers will be    131072 words long.
 Raffenetti 2 integral format.
 Two-electron integral symmetry is turned off.
   280 basis functions,   506 primitive gaussians,   302 cartesian basis functions
    38 alpha electrons       38 beta electrons
       nuclear repulsion energy       530.0917244141 Hartrees.
 NAtoms=   14 NActive=   14 NUniq=   14 SFac= 1.00D+00 NAtFMM=   50 NAOKFM=F Big=F
 One-electron integrals computed using PRISM.
 NBasis=   280 RedAO= T  NBF=   280
 NBsUse=   280 1.00D-06 NBFU=   280
 Initial guess read from the read-write file.
 B after Tr=     0.000000    0.000000    0.000000
         Rot=    1.000000    0.000000    0.000000    0.000000 Ang=   0.00 deg.
 Harris functional with IExCor=  402 diagonalized for initial guess.
 ExpMin= 2.97D-02 ExpMax= 1.17D+04 ExpMxC= 4.01D+02 IAcc=3 IRadAn=         0 AccDes= 0.00D+00
 HarFok:  IExCor=  402 AccDes= 0.00D+00 IRadAn=         0 IDoV= 1
 ScaDFX=  1.000000  1.000000  1.000000  1.000000
 FoFCou: FMM=F IPFlag=           0 FMFlag=      100000 FMFlg1=           0
         NFxFlg=           0 DoJE=T BraDBF=F KetDBF=T FulRan=T
         Omega=  0.000000  0.000000  1.000000  0.000000  0.000000 ICntrl=     500 IOpCl=  0
         NMat0=    1 NMatS0=    1 NMatT0=    0 NMatD0=    1 NMtDS0=    0 NMtDT0=    0
         I1Cent=           4 NGrid=           0.
 Symmetry not used in FoFCou.
 Requested convergence on RMS density matrix=1.00D-08 within 128 cycles.
 Requested convergence on MAX density matrix=1.00D-06.
 Requested convergence on             energy=1.00D-06.
 No special actions if energy rises.
 SCF Done:  E(RB3LYP) =  -544.974427639     A.U. after   12 cycles
             Convg  =    0.8508D-08             -V/T =  2.0060
 QCSCF skips out because SCF is already converged.
 Range of M.O.s used for correlation:     1   280
 NBasis=   280 NAE=    38 NBE=    38 NFC=     0 NFV=     0
 NROrb=    280 NOA=    38 NOB=    38 NVA=   242 NVB=   242

 **** Warning!!: The largest alpha MO coefficient is  0.11327486D+03

 Symmetrizing basis deriv contribution to polar:
 IMax=3 JMax=2 DiffMx= 0.00D+00
 Calling FoFJK, ICntrl=      2147 FMM=F ISym2X=0 I1Cent= 0 IOpClX= 0 NMat=1 NMatS=1 NMatT=0.
 -------------------------------------------------------------------
 Center     Atomic                   Forces (Hartrees/Bohr)
 Number     Number              X              Y              Z
 -------------------------------------------------------------------
      1        6          -0.000401866    0.000667355    0.000000004
      2        6          -0.001018156    0.000008315    0.000000008
      3        6          -0.001744095    0.001555418    0.000000002
      4        6          -0.000140978    0.000253437    0.000000004
      5        6          -0.000300710    0.000318425   -0.000000001
      6        6          -0.000344093    0.000251294   -0.000000012
      7        1          -0.000032835    0.000053052    0.000000001
      8        1           0.000043279    0.000022342    0.000000001
      9        7           0.001880995   -0.003380729   -0.000000011
     10        7           0.002451822    0.000042887    0.000000002
     11        1          -0.000028042    0.000017988   -0.000000002
     12        7          -0.000156257    0.000110224    0.000000001
     13        8          -0.000263248   -0.000033065    0.000000003
     14        8           0.000054184    0.000113057    0.000000000
 -------------------------------------------------------------------
 Cartesian Forces:  Max     0.003380729 RMS     0.000826251
 IRC-IRC-IRC-IRC-IRC-IRC-IRC-IRC-IRC-IRC-IRC-IRC-IRC-IRC-IRC-IRC-IRC-IRC
 Pt  6 Step number   1 out of a maximum of1000
 CORRECTOR INTEGRATION CONVERGENCE:
   Recorrection delta-x convergence threshold:    0.010000
   Delta-x Convergence Met
 Point Number:   6          Path Number:   1
   CHANGE IN THE REACTION COORDINATE =    0.03579
   NET REACTION COORDINATE UP TO THIS POINT =    0.21467
  # OF POINTS ALONG THE PATH =   6
  # OF STEPS =   1

 Calculating another point on the path.
 IRC-IRC-IRC-IRC-IRC-IRC-IRC-IRC-IRC-IRC-IRC-IRC-IRC-IRC-IRC-IRC-IRC-IRC
                          Input orientation:                          
 ---------------------------------------------------------------------
 Center     Atomic      Atomic             Coordinates (Angstroms)
 Number     Number       Type             X           Y           Z
 ---------------------------------------------------------------------
      1          6           0        0.458309    2.156189    0.000000
      2          6           0        1.666849    1.406448    0.000000
      3          6           0        1.409415    0.100285    0.000000
      4          6           0        0.262005   -0.676857    0.000000
      5          6           0       -0.878383    0.123305    0.000000
      6          6           0       -0.792106    1.530473    0.000000
      7          1           0        0.487341    3.248516    0.000000
      8          1           0        0.214368   -1.763375    0.000000
      9          7           0        2.773212   -0.814159    0.000000
     10          7           0        3.850419   -1.081644    0.000000
     11          1           0       -1.715511    2.107351    0.000001
     12          7           0       -2.194184   -0.533807    0.000000
     13          8           0       -3.190389    0.183605    0.000000
     14          8           0       -2.218661   -1.763892    0.000000
 ---------------------------------------------------------------------
                    Distance matrix (angstroms):
                    1          2          3          4          5
     1  C    0.000000
     2  C    1.422210   0.000000
     3  C    2.265247   1.331290   0.000000
     4  C    2.839839   2.512717   1.385821   0.000000
     5  C    2.432974   2.850378   2.287914   1.393106   0.000000
     6  C    1.398233   2.462080   2.625287   2.446111   1.409810
     7  H    1.092713   2.187339   3.280484   3.931836   3.410593
     8  H    3.927148   3.486757   2.213903   1.087561   2.180290
     9  N    3.765866   2.480955   1.641996   2.514958   3.770011
    10  N    4.689348   3.310375   2.712095   3.611173   4.879905
    11  H    2.174368   3.454218   3.713957   3.415024   2.153421
    12  N    3.777803   4.321130   3.658962   2.460351   1.470758
    13  O    4.147780   5.008802   4.600559   3.558008   2.312792
    14  O    4.746915   5.014802   4.078982   2.708385   2.314705
                    6          7          8          9         10
     6  C    0.000000
     7  H    2.142115   0.000000
     8  H    3.444187   5.019319   0.000000
     9  N    4.267176   4.661602   2.729230   0.000000
    10  N    5.326931   5.482753   3.699409   1.109920   0.000000
    11  H    1.088790   2.480890   4.325153   5.355731   6.414770
    12  N    2.495411   4.636437   2.704248   4.975301   6.069378
    13  O    2.750602   4.787418   3.922129   6.046492   7.153589
    14  O    3.589972   5.696199   2.433029   5.081416   6.107307
                   11         12         13         14
    11  H    0.000000
    12  N    2.684184   0.000000
    13  O    2.424059   1.227642   0.000000
    14  O    3.903803   1.230328   2.176465   0.000000
 Symmetry turned off by external request.
 Stoichiometry    C6H3N3O2
 Framework group  C1[X(C6H3N3O2)]
 Deg. of freedom    36
 Full point group                 C1      NOp   1
 Rotational constants (GHZ):      2.3879352      0.7170328      0.5514479
 Standard basis: Aug-CC-pVDZ (5D, 7F)
 Integral buffers will be    131072 words long.
 Raffenetti 2 integral format.
 Two-electron integral symmetry is turned off.
   280 basis functions,   506 primitive gaussians,   302 cartesian basis functions
    38 alpha electrons       38 beta electrons
       nuclear repulsion energy       530.0228170845 Hartrees.
 NAtoms=   14 NActive=   14 NUniq=   14 SFac= 1.00D+00 NAtFMM=   50 NAOKFM=F Big=F
 One-electron integrals computed using PRISM.
 NBasis=   280 RedAO= T  NBF=   280
 NBsUse=   280 1.00D-06 NBFU=   280
 Initial guess read from the read-write file.
 B after Tr=     0.000000    0.000000    0.000000
         Rot=    1.000000    0.000000    0.000000    0.000000 Ang=   0.00 deg.
 Harris functional with IExCor=  402 diagonalized for initial guess.
 ExpMin= 2.97D-02 ExpMax= 1.17D+04 ExpMxC= 4.01D+02 IAcc=3 IRadAn=         0 AccDes= 0.00D+00
 HarFok:  IExCor=  402 AccDes= 0.00D+00 IRadAn=         0 IDoV= 1
 ScaDFX=  1.000000  1.000000  1.000000  1.000000
 FoFCou: FMM=F IPFlag=           0 FMFlag=      100000 FMFlg1=           0
         NFxFlg=           0 DoJE=T BraDBF=F KetDBF=T FulRan=T
         Omega=  0.000000  0.000000  1.000000  0.000000  0.000000 ICntrl=     500 IOpCl=  0
         NMat0=    1 NMatS0=    1 NMatT0=    0 NMatD0=    1 NMtDS0=    0 NMtDT0=    0
         I1Cent=           4 NGrid=           0.
 Symmetry not used in FoFCou.
 Requested convergence on RMS density matrix=1.00D-08 within 128 cycles.
 Requested convergence on MAX density matrix=1.00D-06.
 Requested convergence on             energy=1.00D-06.
 No special actions if energy rises.
 SCF Done:  E(RB3LYP) =  -544.974484173     A.U. after   12 cycles
             Convg  =    0.8102D-08             -V/T =  2.0060
 QCSCF skips out because SCF is already converged.
 Range of M.O.s used for correlation:     1   280
 NBasis=   280 NAE=    38 NBE=    38 NFC=     0 NFV=     0
 NROrb=    280 NOA=    38 NOB=    38 NVA=   242 NVB=   242

 **** Warning!!: The largest alpha MO coefficient is  0.11334061D+03

 Symmetrizing basis deriv contribution to polar:
 IMax=3 JMax=2 DiffMx= 0.00D+00
 Calling FoFJK, ICntrl=      2147 FMM=F ISym2X=0 I1Cent= 0 IOpClX= 0 NMat=1 NMatS=1 NMatT=0.
 -------------------------------------------------------------------
 Center     Atomic                   Forces (Hartrees/Bohr)
 Number     Number              X              Y              Z
 -------------------------------------------------------------------
      1        6          -0.000472838    0.000782013    0.000000003
      2        6          -0.001186639    0.000016311    0.000000008
      3        6          -0.002023082    0.001800649    0.000000002
      4        6          -0.000168618    0.000291235    0.000000003
      5        6          -0.000345290    0.000367140   -0.000000001
      6        6          -0.000402775    0.000295318   -0.000000011
      7        1          -0.000039647    0.000064244    0.000000001
      8        1           0.000049291    0.000025463    0.000000001
      9        7           0.002195220   -0.003936372   -0.000000010
     10        7           0.002850365    0.000050100    0.000000002
     11        1          -0.000034128    0.000022097   -0.000000002
     12        7          -0.000178988    0.000128647    0.000000001
     13        8          -0.000305464   -0.000036745    0.000000003
     14        8           0.000062594    0.000129899    0.000000001
 -------------------------------------------------------------------
 Cartesian Forces:  Max     0.003936372 RMS     0.000961286
 IRC-IRC-IRC-IRC-IRC-IRC-IRC-IRC-IRC-IRC-IRC-IRC-IRC-IRC-IRC-IRC-IRC-IRC
 Pt  7 Step number   1 out of a maximum of1000
 CORRECTOR INTEGRATION CONVERGENCE:
   Recorrection delta-x convergence threshold:    0.010000
   Delta-x Convergence Met
 Point Number:   7          Path Number:   1
   CHANGE IN THE REACTION COORDINATE =    0.03579
   NET REACTION COORDINATE UP TO THIS POINT =    0.25046
  # OF POINTS ALONG THE PATH =   7
  # OF STEPS =   1

 Calculating another point on the path.
 IRC-IRC-IRC-IRC-IRC-IRC-IRC-IRC-IRC-IRC-IRC-IRC-IRC-IRC-IRC-IRC-IRC-IRC
                          Input orientation:                          
 ---------------------------------------------------------------------
 Center     Atomic      Atomic             Coordinates (Angstroms)
 Number     Number       Type             X           Y           Z
 ---------------------------------------------------------------------
      1          6           0        0.457867    2.156917    0.000000
      2          6           0        1.665748    1.406462    0.000000
      3          6           0        1.407544    0.101955    0.000000
      4          6           0        0.261850   -0.676590    0.000000
      5          6           0       -0.878703    0.123647    0.000000
      6          6           0       -0.792481    1.530747    0.000000
      7          1           0        0.486899    3.249223    0.000000
      8          1           0        0.214905   -1.763104    0.000000
      9          7           0        2.774944   -0.817282    0.000000
     10          7           0        3.852695   -1.081609    0.000000
     11          1           0       -1.715886    2.107590    0.000001
     12          7           0       -2.194325   -0.533705    0.000000
     13          8           0       -3.190600    0.183580    0.000000
     14          8           0       -2.218618   -1.763802    0.000000
 ---------------------------------------------------------------------
                    Distance matrix (angstroms):
                    1          2          3          4          5
     1  C    0.000000
     2  C    1.422027   0.000000
     3  C    2.263792   1.329814   0.000000
     4  C    2.840279   2.511978   1.385189   0.000000
[...]
 422                   -0.03978  12.73961
 423                   -0.03979  12.77539
 424                   -0.03979  12.81117
 425                   -0.03980  12.84695
 426                   -0.03981  12.88275
 427                   -0.03982  12.91856
 428                   -0.03982  12.95435
 429                   -0.03983  12.99017
 430                   -0.03984  13.02596
 431                   -0.03984  13.06174
 432                   -0.03985  13.09753
 433                   -0.03986  13.13332
 434                   -0.03986  13.16911
 435                   -0.03987  13.20489
 436                   -0.03987  13.24067
 437                   -0.03988  13.27646
 438                   -0.03989  13.31224
 439                   -0.03989  13.34802
 440                   -0.03990  13.38380
 441                   -0.03990  13.41958
 442                   -0.03991  13.45536
 443                   -0.03991  13.49114
 444                   -0.03992  13.52692
 445                   -0.03992  13.56270
 446                   -0.03993  13.59849
 447                   -0.03993  13.63428
 448                   -0.03994  13.67012
 449                   -0.03994  13.70590
 450                   -0.03995  13.74169
 451                   -0.03995  13.77747
 452                   -0.03996  13.81325
 453                   -0.03996  13.84903
 454                   -0.03997  13.88480
 455                   -0.03997  13.92057
 456                   -0.03998  13.95635
 457                   -0.03998  13.99211
 458                   -0.03998  14.02788
 459                   -0.03999  14.06365
 460                   -0.03999  14.09942
 461                   -0.04000  14.13521
 462                   -0.04000  14.17088
 463                   -0.04000  14.20673
 464                   -0.04001  14.24252
 465                   -0.04001  14.27830
 466                   -0.04001  14.31408
 467                   -0.04002  14.34986
 468                   -0.04002  14.38564
 469                   -0.04002  14.42141
 470                   -0.04003  14.45719
 471                   -0.04003  14.49296
 472                   -0.04003  14.52874
 473                   -0.04004  14.56451
 474                   -0.04004  14.60027
 475                   -0.04004  14.63604
 476                   -0.04005  14.67181
 477                   -0.04005  14.70757
 478                   -0.04005  14.74333
 479                   -0.04005  14.77909
 480                   -0.04006  14.81477
 481                   -0.04006  14.85063
 482                   -0.04006  14.88640
 483                   -0.04006  14.92216
 484                   -0.04007  14.95792
 485                   -0.04007  14.99367
 486                   -0.04007  15.02943
 487                   -0.04007  15.06518
 488                   -0.04008  15.10093
 489                   -0.04008  15.13668
 490                   -0.04008  15.17244
 491                   -0.04008  15.20821
 492                   -0.04009  15.24399
 493                   -0.04009  15.28096
 494                   -0.04009  15.31682
 495                   -0.04009  15.35271
 496                   -0.04009  15.38846
 497                   -0.04009  15.42412
 498                   -0.04010  15.45993
 499                   -0.04010  15.49593
 500                   -0.04010  15.53169
 501                   -0.04010  15.56745
 502                   -0.04010  15.60319
 503                   -0.04010  15.63857
 504                   -0.04011  15.67423
 505                   -0.04011  15.71058
 506                   -0.04011  15.74611
 507                   -0.04011  15.78189
 508                   -0.04011  15.81796
 509                   -0.04011  15.85366
 510                   -0.04011  15.88944
 511                   -0.04012  15.92530
 512                   -0.04012  15.96114
 513                   -0.04012  15.99698
 --------------------------------------------------------------------------
 
 Total number of points:                  512
 Total number of gradient calculations:   513
 Total number of Hessian calculations:      1
 IRC-IRC-IRC-IRC-IRC-IRC-IRC-IRC-IRC-IRC-IRC-IRC-IRC-IRC-IRC-IRC-IRC-IRC
                          Input orientation:                          
 ---------------------------------------------------------------------
 Center     Atomic      Atomic             Coordinates (Angstroms)
 Number     Number       Type             X           Y           Z
 ---------------------------------------------------------------------
      1          6           0        0.466284    2.154466    0.000000
      2          6           0        1.716674    1.463483    0.000000
      3          6           0        1.487323    0.077288    0.000000
      4          6           0        0.286038   -0.670481    0.000000
      5          6           0       -0.851285    0.110261    0.000000
      6          6           0       -0.774068    1.522824    0.000000
      7          1           0        0.472278    3.247815    0.000000
      8          1           0        0.231918   -1.757263    0.000000
      9          7           0        2.680826   -0.666030    0.000001
     10          7           0        3.670720   -1.180002   -0.000001
     11          1           0       -1.704532    2.089455    0.000000
     12          7           0       -2.166182   -0.552434    0.000000
     13          8           0       -3.163369    0.163525    0.000000
     14          8           0       -2.187012   -1.781953    0.000000
 ---------------------------------------------------------------------
                    Distance matrix (angstroms):
                    1          2          3          4          5
     1  C    0.000000
     2  C    1.428612   0.000000
     3  C    2.314560   1.405040   0.000000
     4  C    2.830692   2.569147   1.415006   0.000000
     5  C    2.432029   2.902692   2.338840   1.379516   0.000000
     6  C    1.391922   2.491448   2.683927   2.436065   1.414672
     7  H    1.093365   2.175399   3.329047   3.922719   3.405299
     8  H    3.918744   3.546505   2.222975   1.088129   2.158929
     9  N    3.586000   2.337609   1.406048   2.394792   3.616413
    10  N    4.624618   3.287295   2.519524   3.422818   4.702480
    11  H    2.171790   3.478001   3.773163   3.402884   2.155282
    12  N    3.775870   4.374985   3.707377   2.455060   1.472453
    13  O    4.139834   5.050218   4.651491   3.548799   2.312697
    14  O    4.747144   5.076575   4.117950   2.711337   2.316169
                    6          7          8          9         10
     6  C    0.000000
     7  H    2.128138   0.000000
     8  H    3.430886   5.010845   0.000000
     9  N    4.089912   4.493981   2.681033   0.000000
    10  N    5.202059   5.462196   3.486917   1.115373   0.000000
    11  H    1.089419   2.465826   4.306632   5.179196   6.291478
    12  N    2.498936   4.626377   2.683747   4.848339   5.870543
    13  O    2.748900   4.767679   3.900949   5.902777   6.964900
    14  O    3.594157   5.689498   2.419056   4.994110   5.888580
                   11         12         13         14
    11  H    0.000000
    12  N    2.681921   0.000000
    13  O    2.416073   1.227591   0.000000
    14  O    3.901357   1.229695   2.176731   0.000000
 Symmetry turned off by external request.
 Stoichiometry    C6H3N3O2
 Framework group  C1[X(C6H3N3O2)]
 Deg. of freedom    36
 Full point group                 C1      NOp   1
 Rotational constants (GHZ):      2.3613512      0.7472190      0.5676071

 **********************************************************************

            Population analysis using the SCF density.

 **********************************************************************

 Alpha  occ. eigenvalues --  -19.20133 -19.19999 -14.58933 -14.56341 -14.52230
 Alpha  occ. eigenvalues --  -10.29799 -10.27624 -10.26078 -10.23981 -10.21859
 Alpha  occ. eigenvalues --  -10.19183  -1.25094  -1.21679  -1.07828  -0.93893
 Alpha  occ. eigenvalues --   -0.87809  -0.80566  -0.75255  -0.70516  -0.63410
 Alpha  occ. eigenvalues --   -0.59732  -0.57088  -0.56832  -0.55733  -0.55543
 Alpha  occ. eigenvalues --   -0.53550  -0.52599  -0.50016  -0.47487  -0.46005
 Alpha  occ. eigenvalues --   -0.41184  -0.38692  -0.33617  -0.33371  -0.31664
 Alpha  occ. eigenvalues --   -0.31246  -0.29152  -0.22229
 Alpha virt. eigenvalues --   -0.13322  -0.11878  -0.11235  -0.03429  -0.02156
 Alpha virt. eigenvalues --   -0.00757   0.00120   0.01548   0.02728   0.03244
 Alpha virt. eigenvalues --    0.03246   0.04857   0.05744   0.06195   0.07463
 Alpha virt. eigenvalues --    0.07558   0.08159   0.08717   0.08936   0.10043
 Alpha virt. eigenvalues --    0.10596   0.10677   0.11295   0.11321   0.11487
 Alpha virt. eigenvalues --    0.11917   0.12540   0.13113   0.13767   0.15185
 Alpha virt. eigenvalues --    0.15257   0.16540   0.16873   0.17095   0.17888
 Alpha virt. eigenvalues --    0.18270   0.19170   0.19561   0.19948   0.20848
 Alpha virt. eigenvalues --    0.21676   0.22246   0.23138   0.23283   0.23890
 Alpha virt. eigenvalues --    0.24098   0.24740   0.25745   0.26038   0.26238
 Alpha virt. eigenvalues --    0.26462   0.27528   0.28403   0.29131   0.29231
 Alpha virt. eigenvalues --    0.29925   0.30513   0.30747   0.31866   0.32151
 Alpha virt. eigenvalues --    0.33096   0.33601   0.34675   0.37081   0.37626
 Alpha virt. eigenvalues --    0.38604   0.40768   0.41285   0.42091   0.42100
 Alpha virt. eigenvalues --    0.42794   0.43473   0.45044   0.46028   0.47203
 Alpha virt. eigenvalues --    0.47809   0.48183   0.49821   0.51169   0.52078
 Alpha virt. eigenvalues --    0.53282   0.53453   0.54217   0.54250   0.54488
 Alpha virt. eigenvalues --    0.56391   0.58089   0.58395   0.59377   0.60877
 Alpha virt. eigenvalues --    0.61791   0.62000   0.63388   0.64390   0.64657
 Alpha virt. eigenvalues --    0.66234   0.67633   0.68164   0.68552   0.68994
 Alpha virt. eigenvalues --    0.70050   0.70178   0.70701   0.72014   0.72940
 Alpha virt. eigenvalues --    0.73397   0.73847   0.75330   0.75374   0.77498
 Alpha virt. eigenvalues --    0.78570   0.80265   0.80549   0.82408   0.83653
 Alpha virt. eigenvalues --    0.84362   0.84979   0.86716   0.87297   0.87936
 Alpha virt. eigenvalues --    0.89021   0.92443   0.94901   0.95317   0.97596
 Alpha virt. eigenvalues --    0.99691   1.00853   1.04237   1.04576   1.04606
 Alpha virt. eigenvalues --    1.06124   1.07519   1.08611   1.11281   1.11540
 Alpha virt. eigenvalues --    1.11957   1.12743   1.14835   1.18106   1.18175
 Alpha virt. eigenvalues --    1.21040   1.23094   1.23760   1.24819   1.28218
 Alpha virt. eigenvalues --    1.28716   1.31082   1.31267   1.33785   1.34196
 Alpha virt. eigenvalues --    1.34550   1.36374   1.37899   1.38300   1.39527
 Alpha virt. eigenvalues --    1.41365   1.42034   1.43295   1.43732   1.45996
 Alpha virt. eigenvalues --    1.46412   1.49790   1.50252   1.50372   1.51741
 Alpha virt. eigenvalues --    1.53721   1.56985   1.59466   1.59902   1.62778
 Alpha virt. eigenvalues --    1.64446   1.66249   1.68643   1.70199   1.70602
 Alpha virt. eigenvalues --    1.72615   1.76535   1.77198   1.79137   1.80574
 Alpha virt. eigenvalues --    1.81924   1.85254   1.88165   1.88480   1.90505
 Alpha virt. eigenvalues --    1.91790   1.91843   1.97588   1.98985   1.99652
 Alpha virt. eigenvalues --    2.01887   2.03097   2.04304   2.05636   2.06901
 Alpha virt. eigenvalues --    2.08805   2.11714   2.15922   2.17593   2.17796
 Alpha virt. eigenvalues --    2.22028   2.25086   2.26293   2.26698   2.29444
 Alpha virt. eigenvalues --    2.32219   2.33227   2.35681   2.35707   2.39185
 Alpha virt. eigenvalues --    2.45030   2.45980   2.50048   2.58918   2.60221
 Alpha virt. eigenvalues --    2.62570   2.74826   2.75754   2.80299   2.83201
 Alpha virt. eigenvalues --    2.84277   2.89742   2.97425   3.07015   3.11137
 Alpha virt. eigenvalues --    3.13006   3.24905   3.27669   3.27823   3.28027
 Alpha virt. eigenvalues --    3.34943   3.36162   3.37877   3.38678   3.43656
 Alpha virt. eigenvalues --    3.48653   3.58572   3.59065   3.71021   3.77975
 Alpha virt. eigenvalues --    3.80451   4.12704
          Condensed to atoms (all electrons):
              1          2          3          4          5          6
     1  C    9.700116   0.035637  -0.068200  -1.520578   0.538061  -3.044720
     2  C    0.035637   9.943072  -0.714223  -0.344479  -1.067606   0.083131
     3  C   -0.068200  -0.714223  11.042640  -3.134538  -1.222034  -0.910479
     4  C   -1.520578  -0.344479  -3.134538  13.338171  -1.538025  -0.335026
     5  C    0.538061  -1.067606  -1.222034  -1.538025  10.646842  -2.709889
     6  C   -3.044720   0.083131  -0.910479  -0.335026  -2.709889  13.085677
     7  H   -1.111185  -0.348837  -0.013838   0.118986  -0.211633   0.992332
     8  H    0.008948   0.010267   1.120588  -1.553730   0.032193  -0.154164
     9  N    0.060794  -0.167902   0.236378   0.032788   0.021602  -0.171849
    10  N    0.054959   0.015635  -1.090264  -0.040182   0.132526  -0.066633
    11  H    0.928248  -0.033212  -0.090095  -0.125772   0.570308  -1.949276
    12  N   -0.148648   0.008901  -0.133671  -0.042658  -0.381522   0.285130
    13  O   -0.067550   0.001512  -0.006288  -0.032930   0.135156   0.040872
    14  O   -0.047495   0.009158   0.005299   0.099761   0.063459  -0.060763
              7          8          9         10         11         12
     1  C   -1.111185   0.008948   0.060794   0.054959   0.928248  -0.148648
     2  C   -0.348837   0.010267  -0.167902   0.015635  -0.033212   0.008901
     3  C   -0.013838   1.120588   0.236378  -1.090264  -0.090095  -0.133671
     4  C    0.118986  -1.553730   0.032788  -0.040182  -0.125772  -0.042658
     5  C   -0.211633   0.032193   0.021602   0.132526   0.570308  -0.381522
     6  C    0.992332  -0.154164  -0.171849  -0.066633  -1.949276   0.285130
     7  H    2.503171   0.004647  -0.026482   0.002510  -0.251459   0.014885
     8  H    0.004647   2.644014  -0.234695  -0.008652  -0.007691  -0.036910
     9  N   -0.026482  -0.234695   7.609583  -0.876627   0.015154  -0.025489
    10  N    0.002510  -0.008652  -0.876627   9.659812   0.000520  -0.006209
    11  H   -0.251459  -0.007691   0.015154   0.000520   2.898521  -0.125448
    12  N    0.014885  -0.036910  -0.025489  -0.006209  -0.125448   7.843202
    13  O   -0.001085  -0.010012   0.001656   0.000057  -0.021756  -0.465756
    14  O   -0.000268  -0.021355   0.006265   0.000064  -0.009911  -0.444465
             13         14
     1  C   -0.067550  -0.047495
     2  C    0.001512   0.009158
     3  C   -0.006288   0.005299
     4  C   -0.032930   0.099761
     5  C    0.135156   0.063459
     6  C    0.040872  -0.060763
     7  H   -0.001085  -0.000268
     8  H   -0.010012  -0.021355
     9  N    0.001656   0.006265
    10  N    0.000057   0.000064
    11  H   -0.021756  -0.009911
    12  N   -0.465756  -0.444465
    13  O    9.158323  -0.054888
    14  O   -0.054888   9.128174
 Mulliken atomic charges:
              1
     1  C    0.681612
     2  C   -1.431056
     3  C    0.978724
     4  C    1.078211
     5  C    0.990562
     6  C    0.915656
     7  H   -0.671745
     8  H   -0.793450
     9  N    0.518825
    10  N   -0.777517
    11  H   -0.798135
    12  N    0.658657
    13  O   -0.677310
    14  O   -0.673036
 Sum of Mulliken atomic charges =   0.00000
 Mulliken charges with hydrogens summed into heavy atoms:
              1
     1  C    0.009867
     2  C   -1.431056
     3  C    0.978724
     4  C    0.284762
     5  C    0.990562
     6  C    0.117522
     9  N    0.518825
    10  N   -0.777517
    12  N    0.658657
    13  O   -0.677310
    14  O   -0.673036
 Sum of Mulliken charges with hydrogens summed into heavy atoms =   0.00000
 APT atomic charges:
              1
     1  C    0.321689
     2  C   -0.345809
     3  C   -0.284828
     4  C    1.183991
     5  C    0.212878
     6  C    0.247084
     7  H   -0.099249
     8  H   -0.231657
     9  N   -1.614797
    10  N    1.213071
    11  H   -0.177345
    12  N    0.645464
    13  O   -0.512794
    14  O   -0.557698
 Sum of APT charges=   0.00000
 APT Atomic charges with hydrogens summed into heavy atoms:
              1
     1  C    0.222440
     2  C   -0.345809
     3  C   -0.284828
     4  C    0.952334
     5  C    0.212878
     6  C    0.069739
     7  H    0.000000
     8  H    0.000000
     9  N   -1.614797
    10  N    1.213071
    11  H    0.000000
    12  N    0.645464
    13  O   -0.512794
    14  O   -0.557698
 Sum of APT charges=   0.00000
 Electronic spatial extent (au):  <R**2>=           1774.8251
 Charge=              0.0000 electrons
 Dipole moment (field-independent basis, Debye):
    X=              2.7405    Y=             -1.3937    Z=              0.0000  Tot=              3.0746
 Quadrupole moment (field-independent basis, Debye-Ang):
   XX=            -73.5157   YY=            -63.2625   ZZ=            -61.6184
   XY=            -13.4916   XZ=              0.0000   YZ=              0.0000
 Traceless Quadrupole moment (field-independent basis, Debye-Ang):
   XX=             -7.3835   YY=              2.8697   ZZ=              4.5138
   XY=            -13.4916   XZ=              0.0000   YZ=              0.0000
 Octapole moment (field-independent basis, Debye-Ang**2):
  XXX=             20.3112  YYY=            -11.8051  ZZZ=              0.0000  XYY=            -10.0170
  XXY=            -18.7754  XXZ=              0.0000  XZZ=             -7.1002  YZZ=            -10.1378
  YYZ=              0.0000  XYZ=              0.0000
 Hexadecapole moment (field-independent basis, Debye-Ang**3):
 XXXX=          -1766.0082 YYYY=           -601.9782 ZZZZ=            -64.3950 XXXY=            -89.4057
 XXXZ=              0.0000 YYYX=            -67.6829 YYYZ=              0.0000 ZZZX=              0.0000
 ZZZY=              0.0000 XXYY=           -424.5040 XXZZ=           -271.5150 YYZZ=           -120.7476
 XXYZ=              0.0000 YYXZ=              0.0000 ZZXY=             -7.7976
 N-N= 5.341342980199D+02 E-N=-2.338885758148D+03  KE= 5.416854325402D+02
  Exact polarizability:   0.000   0.000   0.000   0.000   0.000   0.000
 Approx polarizability: 280.314 -48.068 232.819   0.000   0.000  90.228
 -------------------------------------------------------------------
 Center     Atomic                   Forces (Hartrees/Bohr)
 Number     Number              X              Y              Z
 -------------------------------------------------------------------
      1        6          -0.000019320    0.000000488   -0.000000016
      2        6           0.000044863    0.000032829    0.000000011
      3        6          -0.000209775    0.000189034    0.000000149
      4        6           0.000018848   -0.000004033    0.000000003
      5        6           0.000027569   -0.000000012   -0.000000003
      6        6           0.000004648    0.000014696    0.000000003
      7        1           0.000005935   -0.000012675   -0.000000004
      8        1           0.000002472   -0.000010253    0.000000001
      9        7           0.000364900   -0.000281733   -0.000000262
     10        7          -0.000305196    0.000115148    0.000000125
     11        1           0.000015892   -0.000014938   -0.000000004
     12        7           0.000008919   -0.000014176   -0.000000004
     13        8           0.000012929   -0.000012502    0.000000002
     14        8           0.000027316   -0.000001873   -0.000000001
 -------------------------------------------------------------------
 Cartesian Forces:  Max     0.000364900 RMS     0.000098275

 This type of calculation cannot be archived.


 THE PROMISED LAND ALWAYS LIES ON THE OTHER SIDE OF A WILDERNESS.

                         -- HAVELOCK ELLIS
 Job cpu time:  3 days 18 hours 59 minutes 48.1 seconds.
 File lengths (MBytes):  RWF=    131 Int=      0 D2E=      0 Chk=     21 Scr=      1
 Normal termination of Gaussian 09 at Fri Dec 21 23:27:31 2018.
