 Entering Gaussian System, Link 0=/home/ubuntu/g09/g09
 Input=4-Br-C6H3-IRC.gjf
 Output=4-Br-C6H3-IRC.log
 Initial command:
 /home/ubuntu/g09/l1.exe /home/ubuntu/g09/Gau-6242.inp -scrdir=/home/ubuntu/g09/
 Entering Link 1 = /home/ubuntu/g09/l1.exe PID=      6244.
  
 Copyright (c) 1988,1990,1992,1993,1995,1998,2003,2009,2010,
            Gaussian, Inc.  All Rights Reserved.
  
 This is part of the Gaussian(R) 09 program.  It is based on
 the Gaussian(R) 03 system (copyright 2003, Gaussian, Inc.),
 the Gaussian(R) 98 system (copyright 1998, Gaussian, Inc.),
 the Gaussian(R) 94 system (copyright 1995, Gaussian, Inc.),
 the Gaussian 92(TM) system (copyright 1992, Gaussian, Inc.),
 the Gaussian 90(TM) system (copyright 1990, Gaussian, Inc.),
 the Gaussian 88(TM) system (copyright 1988, Gaussian, Inc.),
 the Gaussian 86(TM) system (copyright 1986, Carnegie Mellon
 University), and the Gaussian 82(TM) system (copyright 1983,
 Carnegie Mellon University). Gaussian is a federally registered
 trademark of Gaussian, Inc.
  
 This software contains proprietary and confidential information,
 including trade secrets, belonging to Gaussian, Inc.
  
 This software is provided under written license and may be
 used, copied, transmitted, or stored only in accord with that
 written license.
  
 The following legend is applicable only to US Government
 contracts under FAR:
  
                    RESTRICTED RIGHTS LEGEND
  
 Use, reproduction and disclosure by the US Government is
 subject to restrictions as set forth in subparagraphs (a)
 and (c) of the Commercial Computer Software - Restricted
 Rights clause in FAR 52.227-19.
  
 Gaussian, Inc.
 340 Quinnipiac St., Bldg. 40, Wallingford CT 06492
  
  
 ---------------------------------------------------------------
 Warning -- This program may not be used in any manner that
 competes with the business of Gaussian, Inc. or will provide
 assistance to any competitor of Gaussian, Inc.  The licensee
 of this program is prohibited from giving any competitor of
 Gaussian, Inc. access to this program.  By using this program,
 the user acknowledges that Gaussian, Inc. is engaged in the
 business of creating and licensing software in the field of
 computational chemistry and represents and warrants to the
 licensee that it is not a competitor of Gaussian, Inc. and that
 it will not use this program in any manner prohibited above.
 ---------------------------------------------------------------
  

 Cite this work as:
 Gaussian 09, Revision B.01,
 M. J. Frisch, G. W. Trucks, H. B. Schlegel, G. E. Scuseria, 
 M. A. Robb, J. R. Cheeseman, G. Scalmani, V. Barone, B. Mennucci, 
 G. A. Petersson, H. Nakatsuji, M. Caricato, X. Li, H. P. Hratchian, 
 A. F. Izmaylov, J. Bloino, G. Zheng, J. L. Sonnenberg, M. Hada, 
 M. Ehara, K. Toyota, R. Fukuda, J. Hasegawa, M. Ishida, T. Nakajima, 
 Y. Honda, O. Kitao, H. Nakai, T. Vreven, J. A. Montgomery, Jr., 
 J. E. Peralta, F. Ogliaro, M. Bearpark, J. J. Heyd, E. Brothers, 
 K. N. Kudin, V. N. Staroverov, T. Keith, R. Kobayashi, J. Normand, 
 K. Raghavachari, A. Rendell, J. C. Burant, S. S. Iyengar, J. Tomasi, 
 M. Cossi, N. Rega, J. M. Millam, M. Klene, J. E. Knox, J. B. Cross, 
 V. Bakken, C. Adamo, J. Jaramillo, R. Gomperts, R. E. Stratmann, 
 O. Yazyev, A. J. Austin, R. Cammi, C. Pomelli, J. W. Ochterski, 
 R. L. Martin, K. Morokuma, V. G. Zakrzewski, G. A. Voth, 
 P. Salvador, J. J. Dannenberg, S. Dapprich, A. D. Daniels, 
 O. Farkas, J. B. Foresman, J. V. Ortiz, J. Cioslowski, 
 and D. J. Fox, Gaussian, Inc., Wallingford CT, 2010.
 
 ******************************************
 Gaussian 09:  EM64L-G09RevB.01 12-Aug-2010
                22-Dec-2018 
 ******************************************
 %chk=4-Br-C6H3-IRC.chk
 %mem=500MW
 %nproc=7
 Will use up to    7 processors via shared memory.
 ----------------------------------------------------------------------
 # rb3lyp/aug-cc-pVDZ irc=(calcfc,maxcycle=1000,maxpoints=10000,stepsiz
 e=1) scf=(xqc,maxcycle=1000) nosymm
 ----------------------------------------------------------------------
 1/6=1000,10=4,14=-1,18=10,26=3,38=1,39=1,42=10000,44=3/1,23;
 2/12=2,15=1,17=6,18=5,29=1,40=1/2;
 3/5=16,7=10,11=2,16=1,25=1,30=1,71=2,74=-5,116=1/1,2,3;
 4//1;
 5/5=2,7=1000,8=3,13=1,38=5/2,8;
 8/6=4,10=90,11=11/1;
 11/6=1,8=1,9=11,15=111,16=1,31=1/1,2,10;
 10/6=1,7=6,13=1,31=1/2;
 6/7=2,8=2,9=2,10=2,28=1/1;
 7/10=1,18=20,25=1,30=1/1,2,3,16;
 1/6=1000,10=4,14=-1,18=10,39=1,42=10000,44=3/23(3);
 2/15=1,29=1/2;
 7/9=1,25=1,30=1,44=-1/16;
 99/5=20/99;
 2/15=1,29=1/2;
 3/5=16,7=10,11=2,16=1,25=1,30=1,71=2,74=-5,116=1/1,2,3;
 4/5=5,16=3/1;
 5/5=2,7=1000,8=3,13=1,38=5/2,8;
 8/6=4,10=90,11=11/1;
 11/6=1,8=1,9=11,15=111,16=1,31=1/1,2,10;
 10/6=1,7=6,13=1,31=1/2;
 7/10=1,18=20,25=1,30=1/1,2,3,16;
 1/6=1000,14=-1,18=10,39=1,42=10000,44=3/23(-8);
 2/15=1,29=1/2;
 6/7=2,8=2,9=2,10=2,19=2,28=1/1;
 7/9=1,25=1,30=1,44=-1/16;
 99/5=20,9=1/99;
 ---------
 4-Br-C6H3
 ---------
 Symbolic Z-matrix:
 Charge =  0 Multiplicity = 1
 C                    -1.22806  -0.09873   0. 
 C                    -1.25147  -1.51534   0. 
 C                    -0.01961  -2.03254   0. 
 C                     1.26101  -1.48224   0. 
 C                     1.24721  -0.09077   0. 
 C                     0.        0.57156   0. 
 H                    -2.15037   0.48578   0. 
 H                     2.18392  -2.06332   0. 
 H                     2.17534   0.47618   0. 
 N                    -0.023    -3.64898   0. 
 N                    -0.39383  -4.69821   0. 
 Br                    0.0187    2.49772   0. 
 
 IRC-IRC-IRC-IRC-IRC-IRC-IRC-IRC-IRC-IRC-IRC-IRC-IRC-IRC-IRC-IRC-IRC-IRC
 ------------------------------------------------------------------------
 INPUT DATA FOR L123
 ------------------------------------------------------------------------
 GENERAL PARAMETERS:
 Follow reaction path in both directions.
 Maximum points per path      =****
 Step size                    =   0.010 bohr
 Integration scheme           = HPC                                 
    Redo corrector integration= Yes                                 
    Max correction cycles     =1000
 Initial Hessian              = CalcFC
 Hessian eveluation           = All updating
    Hessian updating method   = Bofill                              
 ------------------------------------------------------------------------
 IRC-IRC-IRC-IRC-IRC-IRC-IRC-IRC-IRC-IRC-IRC-IRC-IRC-IRC-IRC-IRC-IRC-IRC
                          Input orientation:                          
 ---------------------------------------------------------------------
 Center     Atomic      Atomic             Coordinates (Angstroms)
 Number     Number       Type             X           Y           Z
 ---------------------------------------------------------------------
      1          6           0       -1.228060   -0.098730    0.000000
      2          6           0       -1.251470   -1.515340    0.000000
      3          6           0       -0.019610   -2.032540    0.000000
      4          6           0        1.261010   -1.482240    0.000000
      5          6           0        1.247210   -0.090770    0.000000
      6          6           0        0.000000    0.571560    0.000000
      7          1           0       -2.150370    0.485780    0.000000
      8          1           0        2.183920   -2.063320    0.000000
      9          1           0        2.175340    0.476180    0.000000
     10          7           0       -0.023000   -3.648980    0.000000
     11          7           0       -0.393830   -4.698210    0.000000
     12         35           0        0.018700    2.497720    0.000000
 ---------------------------------------------------------------------
                    Distance matrix (angstroms):
                    1          2          3          4          5
     1  C    0.000000
     2  C    1.416803   0.000000
     3  C    2.280345   1.336030   0.000000
     4  C    2.847731   2.512698   1.393850   0.000000
     5  C    2.475283   2.876248   2.318470   1.391538   0.000000
     6  C    1.399078   2.433378   2.604174   2.410029   1.412166
     7  H    1.091928   2.193742   3.298799   3.938352   3.446151
     8  H    3.937159   3.478820   2.203745   1.090604   2.183662
     9  H    3.451616   3.963481   3.333389   2.161344   1.087593
    10  N    3.749193   2.462023   1.616444   2.518619   3.778133
    11  N    4.674522   3.296393   2.691809   3.616761   4.890963
    12  Br   2.880271   4.209273   4.530422   4.169342   2.865226
                    6          7          8          9         10
     6  C    0.000000
     7  H    2.152080   0.000000
     8  H    3.422294   5.028318   0.000000
     9  H    2.177430   4.325721   2.539514   0.000000
    10  N    4.220603   4.649940   2.717501   4.674360   0.000000
    11  N    5.284466   5.473498   3.686115   5.777105   1.112834
    12  Br   1.926251   2.958508   5.048887   2.955963   6.146841
                   11         12
    11  N    0.000000
    12  Br   7.207745   0.000000
 Symmetry turned off by external request.
 Stoichiometry    C6H3BrN2
 Framework group  CS[SG(C6H3BrN2)]
 Deg. of freedom    21
 Full point group                 CS      NOp   2
 Rotational constants (GHZ):      5.5954024      0.4602634      0.4252809
 Standard basis: Aug-CC-pVDZ (5D, 7F)
 Integral buffers will be    131072 words long.
 Raffenetti 2 integral format.
 Two-electron integral symmetry is turned off.
   247 basis functions,   534 primitive gaussians,   266 cartesian basis functions
    44 alpha electrons       44 beta electrons
       nuclear repulsion energy       556.1261759747 Hartrees.
 NAtoms=   12 NActive=   12 NUniq=   12 SFac= 1.00D+00 NAtFMM=   50 NAOKFM=F Big=F
 One-electron integrals computed using PRISM.
 NBasis=   247 RedAO= T  NBF=   247
 NBsUse=   247 1.00D-06 NBFU=   247
 Harris functional with IExCor=  402 diagonalized for initial guess.
 ExpMin= 2.97D-02 ExpMax= 6.40D+05 ExpMxC= 6.18D+03 IAcc=3 IRadAn=         0 AccDes= 0.00D+00
 HarFok:  IExCor=  402 AccDes= 0.00D+00 IRadAn=         0 IDoV= 1
 ScaDFX=  1.000000  1.000000  1.000000  1.000000
 FoFCou: FMM=F IPFlag=           0 FMFlag=      100000 FMFlg1=           0
         NFxFlg=           0 DoJE=T BraDBF=F KetDBF=T FulRan=T
         Omega=  0.000000  0.000000  1.000000  0.000000  0.000000 ICntrl=     500 IOpCl=  0
         NMat0=    1 NMatS0=    1 NMatT0=    0 NMatD0=    1 NMtDS0=    0 NMtDT0=    0
         I1Cent=           4 NGrid=           0.
 Symmetry not used in FoFCou.
 Requested convergence on RMS density matrix=1.00D-08 within 128 cycles.
 Requested convergence on MAX density matrix=1.00D-06.
 Requested convergence on             energy=1.00D-06.
 No special actions if energy rises.
 EnCoef did     2 forward-backward iterations
 EnCoef did     4 forward-backward iterations
 SCF Done:  E(RB3LYP) =  -2913.99478781     A.U. after   18 cycles
             Convg  =    0.6387D-08             -V/T =  2.0020
 QCSCF skips out because SCF is already converged.
 Range of M.O.s used for correlation:     1   247
 NBasis=   247 NAE=    44 NBE=    44 NFC=     0 NFV=     0
 NROrb=    247 NOA=    44 NOB=    44 NVA=   203 NVB=   203

 **** Warning!!: The largest alpha MO coefficient is  0.10037388D+03

 Symmetrizing basis deriv contribution to polar:
 IMax=3 JMax=2 DiffMx= 0.00D+00
 G2DrvN: will do    13 centers at a time, making    1 passes doing MaxLOS=2.
 Calling FoFCou, ICntrl=  3107 FMM=F I1Cent=   0 AccDes= 0.00D+00.
 FoFDir/FoFCou used for L=0 through L=2.
 End of G2Drv Frequency-dependent properties file   721 does not exist.
 End of G2Drv Frequency-dependent properties file   722 does not exist.
          IDoAtm=111111111111
          Differentiating once with respect to nuclear coordinates.
          There are    39 degrees of freedom in the 1st order CPHF.  IDoFFX=5.
     33 vectors produced by pass  0 Test12= 2.29D-10 2.56D-07 XBig12= 7.53D-01 2.81D-01.
 AX will form    33 AO Fock derivatives at one time.
     33 vectors produced by pass  1 Test12= 2.29D-10 2.56D-07 XBig12= 3.98D-01 2.44D-01.
     33 vectors produced by pass  2 Test12= 2.29D-10 2.56D-07 XBig12= 5.00D-03 1.10D-02.
     33 vectors produced by pass  3 Test12= 2.29D-10 2.56D-07 XBig12= 8.66D-05 1.09D-03.
     33 vectors produced by pass  4 Test12= 2.29D-10 2.56D-07 XBig12= 3.78D-07 7.76D-05.
     15 vectors produced by pass  5 Test12= 2.29D-10 2.56D-07 XBig12= 9.93D-10 5.01D-06.
 Inverted reduced A of dimension   180 with in-core refinement.
 End of Minotr Frequency-dependent properties file   721 does not exist.
 End of Minotr Frequency-dependent properties file   722 does not exist.

 **********************************************************************

            Population analysis using the SCF density.

 **********************************************************************

 Alpha  occ. eigenvalues -- -482.88596 -62.53704 -56.35404 -56.35069 -56.35054
 Alpha  occ. eigenvalues --  -14.52478 -14.50021 -10.27402 -10.26069 -10.23575
 Alpha  occ. eigenvalues --  -10.22207 -10.21361 -10.17581  -8.71768  -6.54740
 Alpha  occ. eigenvalues --   -6.53530  -6.53483  -2.65782  -2.65441  -2.65407
 Alpha  occ. eigenvalues --   -2.64442  -2.64441  -1.18812  -0.90080  -0.83150
 Alpha  occ. eigenvalues --   -0.77686  -0.76421  -0.67184  -0.63759  -0.57801
 Alpha  occ. eigenvalues --   -0.53652  -0.53228  -0.52191  -0.48742  -0.47392
 Alpha  occ. eigenvalues --   -0.45362  -0.41034  -0.40517  -0.37638  -0.33155
 Alpha  occ. eigenvalues --   -0.29700  -0.27406  -0.26283  -0.22097
 Alpha virt. eigenvalues --   -0.11040  -0.10300  -0.03763  -0.02372  -0.01404
 Alpha virt. eigenvalues --   -0.00989   0.00624   0.01271   0.02767   0.03591
 Alpha virt. eigenvalues --    0.04252   0.04561   0.05752   0.06608   0.07243
 Alpha virt. eigenvalues --    0.07416   0.07726   0.08295   0.09121   0.09771
 Alpha virt. eigenvalues --    0.10602   0.10877   0.11124   0.11625   0.11764
 Alpha virt. eigenvalues --    0.12276   0.12364   0.13543   0.13663   0.15731
 Alpha virt. eigenvalues --    0.16487   0.16891   0.17301   0.18033   0.18287
 Alpha virt. eigenvalues --    0.19490   0.19643   0.20656   0.21732   0.22642
 Alpha virt. eigenvalues --    0.22887   0.23765   0.24053   0.25188   0.25773
 Alpha virt. eigenvalues --    0.26797   0.26950   0.27153   0.28200   0.29000
 Alpha virt. eigenvalues --    0.29411   0.30029   0.31129   0.31578   0.32335
 Alpha virt. eigenvalues --    0.33502   0.35929   0.36450   0.38113   0.38214
 Alpha virt. eigenvalues --    0.39811   0.40411   0.42022   0.43374   0.44216
 Alpha virt. eigenvalues --    0.46137   0.46443   0.47264   0.47739   0.49819
 Alpha virt. eigenvalues --    0.51815   0.52138   0.53037   0.53848   0.54071
 Alpha virt. eigenvalues --    0.54300   0.55749   0.56401   0.56634   0.58138
 Alpha virt. eigenvalues --    0.58169   0.59214   0.60613   0.60802   0.62170
 Alpha virt. eigenvalues --    0.62469   0.62810   0.64146   0.65906   0.67712
 Alpha virt. eigenvalues --    0.70063   0.70590   0.71045   0.71229   0.71735
 Alpha virt. eigenvalues --    0.72958   0.73833   0.74061   0.74329   0.74747
 Alpha virt. eigenvalues --    0.76376   0.76969   0.77019   0.79115   0.79223
 Alpha virt. eigenvalues --    0.80794   0.81840   0.82404   0.84127   0.84890
 Alpha virt. eigenvalues --    0.87229   0.88051   0.88677   0.90508   0.94063
 Alpha virt. eigenvalues --    0.95539   0.97571   1.03157   1.03668   1.04815
 Alpha virt. eigenvalues --    1.06032   1.06118   1.07196   1.09458   1.10100
 Alpha virt. eigenvalues --    1.12862   1.14796   1.16305   1.20162   1.22658
 Alpha virt. eigenvalues --    1.24392   1.25635   1.27156   1.27262   1.30582
 Alpha virt. eigenvalues --    1.32365   1.34178   1.36259   1.38472   1.38517
 Alpha virt. eigenvalues --    1.42061   1.43459   1.43777   1.45194   1.45621
 Alpha virt. eigenvalues --    1.46084   1.48693   1.50028   1.52923   1.54172
 Alpha virt. eigenvalues --    1.56622   1.59035   1.61647   1.63664   1.65085
 Alpha virt. eigenvalues --    1.66124   1.68235   1.71620   1.73402   1.73669
 Alpha virt. eigenvalues --    1.76135   1.80624   1.84946   1.86602   1.89183
 Alpha virt. eigenvalues --    1.90505   1.91977   1.93338   1.95696   1.97393
 Alpha virt. eigenvalues --    2.00374   2.02842   2.03751   2.04157   2.04686
 Alpha virt. eigenvalues --    2.08307   2.14451   2.18639   2.19431   2.19432
 Alpha virt. eigenvalues --    2.24499   2.29224   2.30023   2.30520   2.34636
 Alpha virt. eigenvalues --    2.42402   2.46011   2.54216   2.56769   2.63326
 Alpha virt. eigenvalues --    2.65059   2.71601   2.77563   2.82681   2.84479
 Alpha virt. eigenvalues --    2.87279   2.98594   3.01054   3.07559   3.10705
 Alpha virt. eigenvalues --    3.27031   3.36903   3.69171
          Condensed to atoms (all electrons):
              1          2          3          4          5          6
     1  C    9.631160   0.094970  -0.031113  -1.733888  -1.356966  -0.818782
     2  C    0.094970  10.782244  -0.060430  -0.940061  -1.440650  -0.581492
     3  C   -0.031113  -0.060430  10.328034  -4.109127   0.419249  -2.000609
     4  C   -1.733888  -0.940061  -4.109127  16.488512  -3.636621   0.569461
     5  C   -1.356966  -1.440650   0.419249  -3.636621  14.587778  -2.473569
     6  C   -0.818782  -0.581492  -2.000609   0.569461  -2.473569  10.375356
     7  H   -0.637410  -0.323947  -0.058389   0.043671   0.156031   0.141306
     8  H    0.155216   0.024545   1.282974  -2.202139   0.773825  -0.630212
     9  H    0.249265   0.055320  -0.615293   0.495206  -1.849344   0.956368
    10  N   -0.019935  -0.258569   0.077686   0.298614  -0.161427   0.025596
    11  N   -0.036878   0.170636  -0.212885  -0.201342  -0.027664   0.018892
    12  Br  -0.052877  -0.021281   0.073585  -0.088764   0.069701   0.012685
              7          8          9         10         11         12
     1  C   -0.637410   0.155216   0.249265  -0.019935  -0.036878  -0.052877
     2  C   -0.323947   0.024545   0.055320  -0.258569   0.170636  -0.021281
     3  C   -0.058389   1.282974  -0.615293   0.077686  -0.212885   0.073585
     4  C    0.043671  -2.202139   0.495206   0.298614  -0.201342  -0.088764
     5  C    0.156031   0.773825  -1.849344  -0.161427  -0.027664   0.069701
     6  C    0.141306  -0.630212   0.956368   0.025596   0.018892   0.012685
     7  H    2.409700   0.008195  -0.015379  -0.007336   0.006408  -0.073114
     8  H    0.008195   2.688268  -0.226101  -0.101235  -0.007680   0.003802
     9  H   -0.015379  -0.226101   2.796343  -0.006323  -0.002400  -0.075694
    10  N   -0.007336  -0.101235  -0.006323   8.095012  -1.384873  -0.001186
    11  N    0.006408  -0.007680  -0.002400  -1.384873   9.363227  -0.000347
    12  Br  -0.073114   0.003802  -0.075694  -0.001186  -0.000347  35.054615
 Mulliken atomic charges:
              1
     1  C    0.557237
     2  C   -1.501285
     3  C    0.906318
     4  C    1.016477
     5  C    0.939657
     6  C    0.405001
     7  H   -0.649736
     8  H   -0.769458
     9  H   -0.761967
    10  N    0.443977
    11  N   -0.685095
    12  Br   0.098875
 Sum of Mulliken atomic charges =   0.00000
 Mulliken charges with hydrogens summed into heavy atoms:
              1
     1  C   -0.092498
     2  C   -1.501285
     3  C    0.906318
     4  C    0.247019
     5  C    0.177690
     6  C    0.405001
    10  N    0.443977
    11  N   -0.685095
    12  Br   0.098875
 Sum of Mulliken charges with hydrogens summed into heavy atoms =   0.00000
 APT atomic charges:
              1
     1  C   -0.344318
     2  C   -0.047859
     3  C    0.219224
     4  C    0.458530
     5  C   -0.015812
     6  C    0.629252
     7  H   -0.121302
     8  H   -0.263644
     9  H   -0.157644
    10  N   -1.799310
    11  N    1.349372
    12  Br   0.093511
 Sum of APT charges=   0.00000
 APT Atomic charges with hydrogens summed into heavy atoms:
              1
     1  C   -0.465621
     2  C   -0.047859
     3  C    0.219224
     4  C    0.194886
     5  C   -0.173455
     6  C    0.629252
     7  H    0.000000
     8  H    0.000000
     9  H    0.000000
    10  N   -1.799310
    11  N    1.349372
    12  Br   0.093511
 Sum of APT charges=   0.00000
 Electronic spatial extent (au):  <R**2>=           2199.7072
 Charge=              0.0000 electrons
 Dipole moment (field-independent basis, Debye):
    X=              2.9521    Y=             -2.6239    Z=              0.0000  Tot=              3.9496
 Quadrupole moment (field-independent basis, Debye-Ang):
   XX=            -63.9225   YY=            -56.5881   ZZ=            -65.9846
   XY=             -6.5492   XZ=              0.0000   YZ=              0.0000
 Traceless Quadrupole moment (field-independent basis, Debye-Ang):
   XX=             -1.7574   YY=              5.5769   ZZ=             -3.8196
   XY=             -6.5492   XZ=              0.0000   YZ=              0.0000
 Octapole moment (field-independent basis, Debye-Ang**2):
  XXX=             19.3364  YYY=             40.2333  ZZZ=              0.0000  XYY=             15.6440
  XXY=             30.2961  XXZ=              0.0000  XZZ=              0.8948  YZZ=             22.5129
  YYZ=              0.0000  XYZ=              0.0000
 Hexadecapole moment (field-independent basis, Debye-Ang**3):
 XXXX=           -339.4259 YYYY=          -2073.8602 ZZZZ=            -77.4475 XXXY=            -62.5092
 XXXZ=              0.0000 YYYX=            -69.2838 YYYZ=              0.0000 ZZZX=              0.0000
 ZZZY=              0.0000 XXYY=           -433.5203 XXZZ=            -76.1271 YYZZ=           -378.1806
 XXYZ=              0.0000 YYXZ=              0.0000 ZZXY=            -10.0362
 N-N= 5.561261759747D+02 E-N=-8.052559074277D+03  KE= 2.908134031211D+03
  Exact polarizability:   0.000   0.000   0.000   0.000   0.000   0.000
 Approx polarizability: 196.790 -12.719 331.869   0.000   0.000 101.127
 Calling FoFJK, ICntrl=    100147 FMM=F ISym2X=0 I1Cent= 0 IOpClX= 0 NMat=1 NMatS=1 NMatT=0.
 -------------------------------------------------------------------
 Center     Atomic                   Forces (Hartrees/Bohr)
 Number     Number              X              Y              Z
 -------------------------------------------------------------------
      1        6          -0.000003255    0.000016995    0.000000000
      2        6           0.000014453   -0.000042057    0.000000000
      3        6          -0.000004623    0.000019922    0.000000000
      4        6           0.000001650    0.000009573    0.000000000
      5        6          -0.000005138   -0.000018310    0.000000000
      6        6           0.000007284    0.000001562    0.000000000
      7        1          -0.000001642    0.000004410    0.000000000
      8        1          -0.000001269   -0.000002102    0.000000000
      9        1           0.000008586    0.000001799    0.000000000
     10        7          -0.000005197    0.000014605    0.000000000
     11        7          -0.000001403   -0.000005604    0.000000000
     12       35          -0.000009444   -0.000000793    0.000000000
 -------------------------------------------------------------------
 Cartesian Forces:  Max     0.000042057 RMS     0.000010104
 IRC-IRC-IRC-IRC-IRC-IRC-IRC-IRC-IRC-IRC-IRC-IRC-IRC-IRC-IRC-IRC-IRC-IRC
          ******** Start new reaction path calculation ********
 Supplied step size of   0.0100 bohr.
    Integration on MW PES will use step size of   0.0358 sqrt(amu)*bohr.
 Point Number:   0          Path Number:   1
 Calculating another point on the path.
 IRC-IRC-IRC-IRC-IRC-IRC-IRC-IRC-IRC-IRC-IRC-IRC-IRC-IRC-IRC-IRC-IRC-IRC
                          Input orientation:                          
 ---------------------------------------------------------------------
 Center     Atomic      Atomic             Coordinates (Angstroms)
 Number     Number       Type             X           Y           Z
 ---------------------------------------------------------------------
      1          6           0       -1.217288   -0.226390    0.000000
      2          6           0       -1.239713   -1.642815    0.000000
      3          6           0       -0.008833   -2.158247    0.000000
      4          6           0        1.272044   -1.610268    0.000000
      5          6           0        1.258250   -0.218614    0.000000
      6          6           0        0.011133    0.443600    0.000000
      7          1           0       -2.139536    0.358171    0.000000
      8          1           0        2.194493   -2.192003    0.000000
      9          1           0        2.186384    0.348339    0.000000
     10          7           0       -0.010140   -3.780431    0.000000
     11          7           0       -0.384031   -4.828296    0.000000
     12         35           0        0.029823    2.369520    0.000000
 ---------------------------------------------------------------------
                    Distance matrix (angstroms):
                    1          2          3          4          5
     1  C    0.000000
     2  C    1.416602   0.000000
     3  C    2.278692   1.334442   0.000000
     4  C    2.848138   2.511968   1.393172   0.000000
     5  C    2.475551   2.875443   2.316825   1.391722   0.000000
     6  C    1.399252   2.432642   2.601924   2.410035   1.412030
     7  H    1.091903   2.193997   3.297310   3.938734   3.446394
     8  H    3.937498   3.477842   2.203585   1.090564   2.184220
     9  H    3.451854   3.962680   3.331959   2.161517   1.087597
    10  N    3.753454   2.466020   1.622184   2.520636   3.780920
    11  N    4.676736   3.298406   2.696281   3.619156   4.893491
    12  Br   2.879937   4.208391   4.527932   4.169151   2.864868
                    6          7          8          9         10
     6  C    0.000000
     7  H    2.152365   0.000000
     8  H    3.422494   5.028638   0.000000
     9  H    2.177335   4.325931   2.540355   0.000000
    10  N    4.224085   4.654283   2.717262   4.676693   0.000000
    11  N    5.286685   5.475512   3.687659   5.779669   1.112571
    12  Br   1.926010   2.958318   5.049088   2.955660   6.150081
                   11         12
    11  N    0.000000
    12  Br   7.209704   0.000000
 Symmetry turned off by external request.
 Stoichiometry    C6H3BrN2
 Framework group  CS[SG(C6H3BrN2)]
 Deg. of freedom    21
 Full point group                 CS      NOp   2
 Rotational constants (GHZ):      5.5954679      0.4600813      0.4251258
 Standard basis: Aug-CC-pVDZ (5D, 7F)
 Integral buffers will be    131072 words long.
 Raffenetti 2 integral format.
 Two-electron integral symmetry is turned off.
   247 basis functions,   534 primitive gaussians,   266 cartesian basis functions
    44 alpha electrons       44 beta electrons
       nuclear repulsion energy       556.0838548163 Hartrees.
 NAtoms=   12 NActive=   12 NUniq=   12 SFac= 1.00D+00 NAtFMM=   50 NAOKFM=F Big=F
 One-electron integrals computed using PRISM.
 NBasis=   247 RedAO= T  NBF=   247
 NBsUse=   247 1.00D-06 NBFU=   247
 Initial guess read from the read-write file.
 B after Tr=     0.000000    0.000000    0.000000
         Rot=    1.000000    0.000000    0.000000    0.000000 Ang=   0.00 deg.
 Harris functional with IExCor=  402 diagonalized for initial guess.
 ExpMin= 2.97D-02 ExpMax= 6.40D+05 ExpMxC= 6.18D+03 IAcc=3 IRadAn=         0 AccDes= 0.00D+00
 HarFok:  IExCor=  402 AccDes= 0.00D+00 IRadAn=         0 IDoV= 1
 ScaDFX=  1.000000  1.000000  1.000000  1.000000
 FoFCou: FMM=F IPFlag=           0 FMFlag=      100000 FMFlg1=           0
         NFxFlg=           0 DoJE=T BraDBF=F KetDBF=T FulRan=T
         Omega=  0.000000  0.000000  1.000000  0.000000  0.000000 ICntrl=     500 IOpCl=  0
         NMat0=    1 NMatS0=    1 NMatT0=    0 NMatD0=    1 NMtDS0=    0 NMtDT0=    0
         I1Cent=           4 NGrid=           0.
 Symmetry not used in FoFCou.
 Requested convergence on RMS density matrix=1.00D-08 within 128 cycles.
 Requested convergence on MAX density matrix=1.00D-06.
 Requested convergence on             energy=1.00D-06.
 No special actions if energy rises.
 SCF Done:  E(RB3LYP) =  -2913.99479259     A.U. after   12 cycles
             Convg  =    0.4598D-08             -V/T =  2.0020
 QCSCF skips out because SCF is already converged.
 Range of M.O.s used for correlation:     1   247
 NBasis=   247 NAE=    44 NBE=    44 NFC=     0 NFV=     0
 NROrb=    247 NOA=    44 NOB=    44 NVA=   203 NVB=   203

 **** Warning!!: The largest alpha MO coefficient is  0.10007243D+03

 Symmetrizing basis deriv contribution to polar:
 IMax=3 JMax=2 DiffMx= 0.00D+00
 Calling FoFJK, ICntrl=      2147 FMM=F ISym2X=0 I1Cent= 0 IOpClX= 0 NMat=1 NMatS=1 NMatT=0.
 -------------------------------------------------------------------
 Center     Atomic                   Forces (Hartrees/Bohr)
 Number     Number              X              Y              Z
 -------------------------------------------------------------------
      1        6          -0.000071961    0.000128143    0.000000000
      2        6           0.000111628    0.000113483    0.000000000
      3        6          -0.000055957    0.000478407    0.000000000
      4        6           0.000002186    0.000057736    0.000000000
      5        6          -0.000016036    0.000063590    0.000000000
      6        6          -0.000006371    0.000083864    0.000000000
      7        1          -0.000006527    0.000018484    0.000000000
      8        1          -0.000012407   -0.000010782    0.000000000
      9        1           0.000007443    0.000014624    0.000000000
     10        7           0.000321751   -0.000681049    0.000000000
     11        7          -0.000243634   -0.000376642    0.000000000
     12       35          -0.000030114    0.000110142    0.000000000
 -------------------------------------------------------------------
 Cartesian Forces:  Max     0.000681049 RMS     0.000172899
 IRC-IRC-IRC-IRC-IRC-IRC-IRC-IRC-IRC-IRC-IRC-IRC-IRC-IRC-IRC-IRC-IRC-IRC
 Pt  1 Step number   1 out of a maximum of1000
 CORRECTOR INTEGRATION CONVERGENCE:
   Recorrection delta-x convergence threshold:    0.010000
   Delta-x Convergence Met
 Point Number:   1          Path Number:   1
   CHANGE IN THE REACTION COORDINATE =    0.03579
   NET REACTION COORDINATE UP TO THIS POINT =    0.03579
  # OF POINTS ALONG THE PATH =   1
  # OF STEPS =   1

 Calculating another point on the path.
 IRC-IRC-IRC-IRC-IRC-IRC-IRC-IRC-IRC-IRC-IRC-IRC-IRC-IRC-IRC-IRC-IRC-IRC
                          Input orientation:                          
 ---------------------------------------------------------------------
 Center     Atomic      Atomic             Coordinates (Angstroms)
 Number     Number       Type             X           Y           Z
 ---------------------------------------------------------------------
      1          6           0       -1.217660   -0.225728    0.000000
      2          6           0       -1.239118   -1.642008    0.000000
      3          6           0       -0.009175   -2.155613    0.000000
      4          6           0        1.272001   -1.609990    0.000000
      5          6           0        1.258180   -0.218151    0.000000
      6          6           0        0.011121    0.443979    0.000000
      7          1           0       -2.139825    0.358938    0.000000
      8          1           0        2.193932   -2.192463    0.000000
      9          1           0        2.186298    0.348877    0.000000
     10          7           0       -0.008552   -3.783618    0.000000
     11          7           0       -0.385201   -4.830202    0.000000
     12         35           0        0.029798    2.369619    0.000000
 ---------------------------------------------------------------------
                    Distance matrix (angstroms):
                    1          2          3          4          5
     1  C    0.000000
     2  C    1.416443   0.000000
     3  C    2.277036   1.332873   0.000000
     4  C    2.848612   2.511323   1.392521   0.000000
     5  C    2.475851   2.874694   2.315156   1.391908   0.000000
     6  C    1.399432   2.431963   2.599672   2.410105   1.411939
     7  H    1.091890   2.194325   3.295852   3.939193   3.446661
     8  H    3.937893   3.476900   2.203415   1.090519   2.184843
     9  H    3.452115   3.961956   3.330551   2.161736   1.087623
    10  N    3.757729   2.469977   1.628005   2.522791   3.783803
    11  N    4.679121   3.300568   2.700892   3.621613   4.896091
    12  Br   2.879578   4.207529   4.525400   4.168975   2.864519
                    6          7          8          9         10
     6  C    0.000000
     7  H    2.152627   0.000000
     8  H    3.422790   5.029026   0.000000
     9  H    2.177255   4.326135   2.541351   0.000000
    10  N    4.227643   4.658658   2.717115   4.679197   0.000000
    11  N    5.289050   5.477762   3.689118   5.782340   1.112296
    12  Br   1.925730   2.958057   5.049362   2.955316   6.153356
                   11         12
    11  N    0.000000
    12  Br   7.211770   0.000000
 Symmetry turned off by external request.
 Stoichiometry    C6H3BrN2
 Framework group  CS[SG(C6H3BrN2)]
 Deg. of freedom    21
 Full point group                 CS      NOp   2
 Rotational constants (GHZ):      5.5953984      0.4598915      0.4249633
 Standard basis: Aug-CC-pVDZ (5D, 7F)
 Integral buffers will be    131072 words long.
 Raffenetti 2 integral format.
 Two-electron integral symmetry is turned off.
   247 basis functions,   534 primitive gaussians,   266 cartesian basis functions
    44 alpha electrons       44 beta electrons
       nuclear repulsion energy       556.0384760612 Hartrees.
 NAtoms=   12 NActive=   12 NUniq=   12 SFac= 1.00D+00 NAtFMM=   50 NAOKFM=F Big=F
 One-electron integrals computed using PRISM.
 NBasis=   247 RedAO= T  NBF=   247
 NBsUse=   247 1.00D-06 NBFU=   247
 Initial guess read from the read-write file.
 B after Tr=     0.000000    0.000000    0.000000
         Rot=    1.000000    0.000000    0.000000    0.000000 Ang=   0.00 deg.
 Harris functional with IExCor=  402 diagonalized for initial guess.
 ExpMin= 2.97D-02 ExpMax= 6.40D+05 ExpMxC= 6.18D+03 IAcc=3 IRadAn=         0 AccDes= 0.00D+00
 HarFok:  IExCor=  402 AccDes= 0.00D+00 IRadAn=         0 IDoV= 1
 ScaDFX=  1.000000  1.000000  1.000000  1.000000
 FoFCou: FMM=F IPFlag=           0 FMFlag=      100000 FMFlg1=           0
         NFxFlg=           0 DoJE=T BraDBF=F KetDBF=T FulRan=T
         Omega=  0.000000  0.000000  1.000000  0.000000  0.000000 ICntrl=     500 IOpCl=  0
         NMat0=    1 NMatS0=    1 NMatT0=    0 NMatD0=    1 NMtDS0=    0 NMtDT0=    0
         I1Cent=           4 NGrid=           0.
 Symmetry not used in FoFCou.
 Requested convergence on RMS density matrix=1.00D-08 within 128 cycles.
 Requested convergence on MAX density matrix=1.00D-06.
 Requested convergence on             energy=1.00D-06.
 No special actions if energy rises.
 SCF Done:  E(RB3LYP) =  -2913.99480691     A.U. after   12 cycles
             Convg  =    0.4581D-08             -V/T =  2.0020
 QCSCF skips out because SCF is already converged.
 Range of M.O.s used for correlation:     1   247
 NBasis=   247 NAE=    44 NBE=    44 NFC=     0 NFV=     0
 NROrb=    247 NOA=    44 NOB=    44 NVA=   203 NVB=   203

 **** Warning!!: The largest alpha MO coefficient is  0.99715826D+02

 Symmetrizing basis deriv contribution to polar:
 IMax=3 JMax=2 DiffMx= 0.00D+00
 Calling FoFJK, ICntrl=      2147 FMM=F ISym2X=0 I1Cent= 0 IOpClX= 0 NMat=1 NMatS=1 NMatT=0.
 -------------------------------------------------------------------
 Center     Atomic                   Forces (Hartrees/Bohr)
 Number     Number              X              Y              Z
 -------------------------------------------------------------------
      1        6          -0.000126172    0.000230558    0.000000000
      2        6           0.000201411    0.000297087    0.000000000
      3        6          -0.000115458    0.000891170    0.000000000
      4        6          -0.000035328    0.000101674    0.000000000
      5        6          -0.000034433    0.000160308    0.000000000
      6        6           0.000003225    0.000105782    0.000000000
      7        1          -0.000008257    0.000017290    0.000000000
      8        1          -0.000014236   -0.000007760    0.000000000
      9        1          -0.000003106    0.000008324    0.000000000
     10        7           0.000693996   -0.001289059    0.000000000
     11        7          -0.000520740   -0.000740190    0.000000000
     12       35          -0.000040902    0.000224815    0.000000000
 -------------------------------------------------------------------
 Cartesian Forces:  Max     0.001289059 RMS     0.000336252
 IRC-IRC-IRC-IRC-IRC-IRC-IRC-IRC-IRC-IRC-IRC-IRC-IRC-IRC-IRC-IRC-IRC-IRC
 Pt  2 Step number   1 out of a maximum of1000
 CORRECTOR INTEGRATION CONVERGENCE:
   Recorrection delta-x convergence threshold:    0.010000
   Delta-x Convergence Met
 Point Number:   2          Path Number:   1
   CHANGE IN THE REACTION COORDINATE =    0.03579
   NET REACTION COORDINATE UP TO THIS POINT =    0.07158
  # OF POINTS ALONG THE PATH =   2
  # OF STEPS =   1

 Calculating another point on the path.
 IRC-IRC-IRC-IRC-IRC-IRC-IRC-IRC-IRC-IRC-IRC-IRC-IRC-IRC-IRC-IRC-IRC-IRC
                          Input orientation:                          
 ---------------------------------------------------------------------
 Center     Atomic      Atomic             Coordinates (Angstroms)
 Number     Number       Type             X           Y           Z
 ---------------------------------------------------------------------
      1          6           0       -1.218021   -0.225082    0.000000
      2          6           0       -1.238513   -1.641175    0.000000
      3          6           0       -0.009520   -2.153050    0.000000
      4          6           0        1.271907   -1.609710    0.000000
      5          6           0        1.258086   -0.217697    0.000000
      6          6           0        0.011123    0.444308    0.000000
      7          1           0       -2.140129    0.359620    0.000000
      8          1           0        2.193406   -2.192790    0.000000
      9          1           0        2.186224    0.349299    0.000000
     10          7           0       -0.006819   -3.786789    0.000000
     11          7           0       -0.386510   -4.832005    0.000000
     12         35           0        0.029778    2.369715    0.000000
 ---------------------------------------------------------------------
                    Distance matrix (angstroms):
                    1          2          3          4          5
     1  C    0.000000
     2  C    1.416241   0.000000
     3  C    2.275419   1.331330   0.000000
     4  C    2.849023   2.510617   1.391859   0.000000
     5  C    2.476118   2.873900   2.313529   1.392082   0.000000
     6  C    1.399599   2.431219   2.597439   2.410096   1.411795
     7  H    1.091861   2.194560   3.294390   3.939575   3.446906
     8  H    3.938236   3.475967   2.203284   1.090478   2.185364
     9  H    3.452361   3.961163   3.329120   2.161872   1.087623
    10  N    3.762017   2.474011   1.633742   2.524840   3.786609
    11  N    4.681362   3.302622   2.705351   3.624022   4.898626
    12  Br   2.879231   4.206638   4.522935   4.168778   2.864165
                    6          7          8          9         10
     6  C    0.000000
     7  H    2.152918   0.000000
     8  H    3.422958   5.029346   0.000000
     9  H    2.177175   4.326365   2.542099   0.000000
    10  N    4.231135   4.663016   2.716951   4.681524   0.000000
    11  N    5.291275   5.479795   3.690721   5.784883   1.112044
    12  Br   1.925498   2.957867   5.049528   2.955054   6.156613
                   11         12
    11  N    0.000000
    12  Br   7.213742   0.000000
 Symmetry turned off by external request.
 Stoichiometry    C6H3BrN2
 Framework group  CS[SG(C6H3BrN2)]
 Deg. of freedom    21
 Full point group                 CS      NOp   2
 Rotational constants (GHZ):      5.5953957      0.4597077      0.4248064
 Standard basis: Aug-CC-pVDZ (5D, 7F)
 Integral buffers will be    131072 words long.
 Raffenetti 2 integral format.
 Two-electron integral symmetry is turned off.
   247 basis functions,   534 primitive gaussians,   266 cartesian basis functions
    44 alpha electrons       44 beta electrons
       nuclear repulsion energy       555.9957583109 Hartrees.
 NAtoms=   12 NActive=   12 NUniq=   12 SFac= 1.00D+00 NAtFMM=   50 NAOKFM=F Big=F
 One-electron integrals computed using PRISM.
 NBasis=   247 RedAO= T  NBF=   247
 NBsUse=   247 1.00D-06 NBFU=   247
 Initial guess read from the read-write file.
 B after Tr=     0.000000    0.000000    0.000000
         Rot=    1.000000    0.000000    0.000000    0.000000 Ang=   0.00 deg.
 Harris functional with IExCor=  402 diagonalized for initial guess.
 ExpMin= 2.97D-02 ExpMax= 6.40D+05 ExpMxC= 6.18D+03 IAcc=3 IRadAn=         0 AccDes= 0.00D+00
 HarFok:  IExCor=  402 AccDes= 0.00D+00 IRadAn=         0 IDoV= 1
 ScaDFX=  1.000000  1.000000  1.000000  1.000000
 FoFCou: FMM=F IPFlag=           0 FMFlag=      100000 FMFlg1=           0
         NFxFlg=           0 DoJE=T BraDBF=F KetDBF=T FulRan=T
         Omega=  0.000000  0.000000  1.000000  0.000000  0.000000 ICntrl=     500 IOpCl=  0
         NMat0=    1 NMatS0=    1 NMatT0=    0 NMatD0=    1 NMtDS0=    0 NMtDT0=    0
         I1Cent=           4 NGrid=           0.
 Symmetry not used in FoFCou.
 Requested convergence on RMS density matrix=1.00D-08 within 128 cycles.
 Requested convergence on MAX density matrix=1.00D-06.
 Requested convergence on             energy=1.00D-06.
 No special actions if energy rises.
 SCF Done:  E(RB3LYP) =  -2913.99483077     A.U. after   12 cycles
             Convg  =    0.4220D-08             -V/T =  2.0020
 QCSCF skips out because SCF is already converged.
 Range of M.O.s used for correlation:     1   247
 NBasis=   247 NAE=    44 NBE=    44 NFC=     0 NFV=     0
 NROrb=    247 NOA=    44 NOB=    44 NVA=   203 NVB=   203

 **** Warning!!: The largest alpha MO coefficient is  0.99368777D+02

 Symmetrizing basis deriv contribution to polar:
 IMax=3 JMax=2 DiffMx= 0.00D+00
 Calling FoFJK, ICntrl=      2147 FMM=F ISym2X=0 I1Cent= 0 IOpClX= 0 NMat=1 NMatS=1 NMatT=0.
 -------------------------------------------------------------------
 Center     Atomic                   Forces (Hartrees/Bohr)
 Number     Number              X              Y              Z
 -------------------------------------------------------------------
      1        6          -0.000190360    0.000338802    0.000000000
      2        6           0.000296237    0.000439381    0.000000000
      3        6          -0.000168517    0.001314996    0.000000000
      4        6          -0.000042348    0.000143783    0.000000000
      5        6          -0.000047096    0.000227840    0.000000000
      6        6          -0.000006962    0.000175867    0.000000000
      7        1          -0.000012874    0.000029729    0.000000000
      8        1          -0.000024535   -0.000015709    0.000000000
      9        1          -0.000003290    0.000020787    0.000000000
     10        7           0.001019511   -0.001945031    0.000000000
     11        7          -0.000768038   -0.001057891    0.000000000
     12       35          -0.000051727    0.000327446    0.000000000
 -------------------------------------------------------------------
 Cartesian Forces:  Max     0.001945031 RMS     0.000498353
 IRC-IRC-IRC-IRC-IRC-IRC-IRC-IRC-IRC-IRC-IRC-IRC-IRC-IRC-IRC-IRC-IRC-IRC
 Pt  3 Step number   1 out of a maximum of1000
 CORRECTOR INTEGRATION CONVERGENCE:
   Recorrection delta-x convergence threshold:    0.010000
   Delta-x Convergence Met
 Point Number:   3          Path Number:   1
   CHANGE IN THE REACTION COORDINATE =    0.03579
   NET REACTION COORDINATE UP TO THIS POINT =    0.10737
  # OF POINTS ALONG THE PATH =   3
  # OF STEPS =   1

 Calculating another point on the path.
 IRC-IRC-IRC-IRC-IRC-IRC-IRC-IRC-IRC-IRC-IRC-IRC-IRC-IRC-IRC-IRC-IRC-IRC
                          Input orientation:                          
 ---------------------------------------------------------------------
 Center     Atomic      Atomic             Coordinates (Angstroms)
 Number     Number       Type             X           Y           Z
 ---------------------------------------------------------------------
      1          6           0       -1.218392   -0.224424    0.000000
      2          6           0       -1.237924   -1.640332    0.000000
      3          6           0       -0.009864   -2.150491    0.000000
      4          6           0        1.271823   -1.609438    0.000000
      5          6           0        1.257992   -0.217249    0.000000
      6          6           0        0.011113    0.444648    0.000000
      7          1           0       -2.140438    0.360326    0.000000
      8          1           0        2.192865   -2.193159    0.000000
      9          1           0        2.186129    0.349762    0.000000
     10          7           0       -0.005105   -3.789976    0.000000
     11          7           0       -0.387805   -4.833808    0.000000
     12         35           0        0.029764    2.369812    0.000000
 ---------------------------------------------------------------------
                    Distance matrix (angstroms):
                    1          2          3          4          5
     1  C    0.000000
     2  C    1.416042   0.000000
     3  C    2.273824   1.329810   0.000000
     4  C    2.849462   2.509937   1.391208   0.000000
     5  C    2.476395   2.873110   2.311900   1.392258   0.000000
     6  C    1.399764   2.430480   2.595224   2.410116   1.411672
     7  H    1.091833   2.194803   3.292954   3.939986   3.447161
     8  H    3.938603   3.475044   2.203143   1.090435   2.185911
     9  H    3.452601   3.960380   3.327709   2.162041   1.087630
    10  N    3.766328   2.478066   1.639492   2.526913   3.789432
    11  N    4.683620   3.304693   2.709803   3.626421   4.901150
    12  Br   2.878880   4.205744   4.520476   4.168590   2.863814
                    6          7          8          9         10
     6  C    0.000000
     7  H    2.153203   0.000000
     8  H    3.423166   5.029692   0.000000
     9  H    2.177085   4.326580   2.542929   0.000000
    10  N    4.234655   4.667403   2.716781   4.683902   0.000000
    11  N    5.293509   5.481857   3.692274   5.787446   1.111776
    12  Br   1.925254   2.957669   5.049723   2.954744   6.159886
                   11         12
    11  N    0.000000
    12  Br   7.215712   0.000000
 Symmetry turned off by external request.
 Stoichiometry    C6H3BrN2
 Framework group  CS[SG(C6H3BrN2)]
 Deg. of freedom    21
 Full point group                 CS      NOp   2
 Rotational constants (GHZ):      5.5953356      0.4595230      0.4246483
 Standard basis: Aug-CC-pVDZ (5D, 7F)
 Integral buffers will be    131072 words long.
 Raffenetti 2 integral format.
 Two-electron integral symmetry is turned off.
   247 basis functions,   534 primitive gaussians,   266 cartesian basis functions
    44 alpha electrons       44 beta electrons
       nuclear repulsion energy       555.9528887384 Hartrees.
 NAtoms=   12 NActive=   12 NUniq=   12 SFac= 1.00D+00 NAtFMM=   50 NAOKFM=F Big=F
 One-electron integrals computed using PRISM.
 NBasis=   247 RedAO= T  NBF=   247
 NBsUse=   247 1.00D-06 NBFU=   247
 Initial guess read from the read-write file.
 B after Tr=     0.000000    0.000000    0.000000
         Rot=    1.000000    0.000000    0.000000    0.000000 Ang=   0.00 deg.
 Harris functional with IExCor=  402 diagonalized for initial guess.
 ExpMin= 2.97D-02 ExpMax= 6.40D+05 ExpMxC= 6.18D+03 IAcc=3 IRadAn=         0 AccDes= 0.00D+00
 HarFok:  IExCor=  402 AccDes= 0.00D+00 IRadAn=         0 IDoV= 1
 ScaDFX=  1.000000  1.000000  1.000000  1.000000
 FoFCou: FMM=F IPFlag=           0 FMFlag=      100000 FMFlg1=           0
         NFxFlg=           0 DoJE=T BraDBF=F KetDBF=T FulRan=T
         Omega=  0.000000  0.000000  1.000000  0.000000  0.000000 ICntrl=     500 IOpCl=  0
         NMat0=    1 NMatS0=    1 NMatT0=    0 NMatD0=    1 NMtDS0=    0 NMtDT0=    0
         I1Cent=           4 NGrid=           0.
 Symmetry not used in FoFCou.
 Requested convergence on RMS density matrix=1.00D-08 within 128 cycles.
 Requested convergence on MAX density matrix=1.00D-06.
 Requested convergence on             energy=1.00D-06.
 No special actions if energy rises.
 SCF Done:  E(RB3LYP) =  -2913.99486408     A.U. after   12 cycles
             Convg  =    0.4213D-08             -V/T =  2.0020
 QCSCF skips out because SCF is already converged.
 Range of M.O.s used for correlation:     1   247
 NBasis=   247 NAE=    44 NBE=    44 NFC=     0 NFV=     0
 NROrb=    247 NOA=    44 NOB=    44 NVA=   203 NVB=   203

 **** Warning!!: The largest alpha MO coefficient is  0.98989098D+02

 Symmetrizing basis deriv contribution to polar:
 IMax=3 JMax=2 DiffMx= 0.00D+00
 Calling FoFJK, ICntrl=      2147 FMM=F ISym2X=0 I1Cent= 0 IOpClX= 0 NMat=1 NMatS=1 NMatT=0.
 -------------------------------------------------------------------
 Center     Atomic                   Forces (Hartrees/Bohr)
 Number     Number              X              Y              Z
 -------------------------------------------------------------------
      1        6          -0.000256389    0.000458617    0.000000000
      2        6           0.000390970    0.000583291    0.000000000
      3        6          -0.000222803    0.001736517    0.000000000
      4        6          -0.000054403    0.000186038    0.000000000
      5        6          -0.000064223    0.000303121    0.000000000
      6        6          -0.000008342    0.000229395    0.000000000
      7        1          -0.000017615    0.000040127    0.000000000
      8        1          -0.000032027   -0.000019520    0.000000000
      9        1          -0.000005877    0.000026232    0.000000000
     10        7           0.001360898   -0.002558545    0.000000000
     11        7          -0.001027449   -0.001418504    0.000000000
     12       35          -0.000062740    0.000433232    0.000000000
 -------------------------------------------------------------------
 Cartesian Forces:  Max     0.002558545 RMS     0.000660013
 IRC-IRC-IRC-IRC-IRC-IRC-IRC-IRC-IRC-IRC-IRC-IRC-IRC-IRC-IRC-IRC-IRC-IRC
 Pt  4 Step number   1 out of a maximum of1000
 CORRECTOR INTEGRATION CONVERGENCE:
   Recorrection delta-x convergence threshold:    0.010000
   Delta-x Convergence Met
 Point Number:   4          Path Number:   1
   CHANGE IN THE REACTION COORDINATE =    0.03579
   NET REACTION COORDINATE UP TO THIS POINT =    0.14316
  # OF POINTS ALONG THE PATH =   4
  # OF STEPS =   1

 Calculating another point on the path.
 IRC-IRC-IRC-IRC-IRC-IRC-IRC-IRC-IRC-IRC-IRC-IRC-IRC-IRC-IRC-IRC-IRC-IRC
                          Input orientation:                          
 ---------------------------------------------------------------------
 Center     Atomic      Atomic             Coordinates (Angstroms)
 Number     Number       Type             X           Y           Z
 ---------------------------------------------------------------------
      1          6           0       -1.218770   -0.223751    0.000000
      2          6           0       -1.237342   -1.639480    0.000000
      3          6           0       -0.010202   -2.147945    0.000000
      4          6           0        1.271743   -1.609168    0.000000
      5          6           0        1.257896   -0.216805    0.000000
      6          6           0        0.011101    0.444986    0.000000
      7          1           0       -2.140753    0.361044    0.000000
      8          1           0        2.192336   -2.193512    0.000000
      9          1           0        2.186029    0.350222    0.000000
     10          7           0       -0.003388   -3.793167    0.000000
     11          7           0       -0.389102   -4.835611    0.000000
     12         35           0        0.029750    2.369908    0.000000
 ---------------------------------------------------------------------
                    Distance matrix (angstroms):
                    1          2          3          4          5
     1  C    0.000000
     2  C    1.415851   0.000000
     3  C    2.272259   1.328311   0.000000
     4  C    2.849918   2.509268   1.390562   0.000000
     5  C    2.476675   2.872319   2.310276   1.392432   0.000000
     6  C    1.399926   2.429734   2.593018   2.410138   1.411546
     7  H    1.091805   2.195050   3.291545   3.940414   3.447423
     8  H    3.938985   3.474139   2.203009   1.090389   2.186446
     9  H    3.452839   3.959593   3.326299   2.162204   1.087635
    10  N    3.770661   2.482138   1.645236   2.528994   3.792255
    11  N    4.685894   3.306775   2.714242   3.628820   4.903669
    12  Br   2.878518   4.204844   4.518030   4.168404   2.863464
                    6          7          8          9         10
     6  C    0.000000
     7  H    2.153491   0.000000
     8  H    3.423369   5.030051   0.000000
     9  H    2.176991   4.326796   2.543741   0.000000
    10  N    4.238177   4.671808   2.716634   4.686279   0.000000
    11  N    5.295740   5.483931   3.693848   5.790005   1.111514
    12  Br   1.925013   2.957469   5.049909   2.954433   6.163164
                   11         12
    11  N    0.000000
    12  Br   7.217682   0.000000
 Symmetry turned off by external request.
 Stoichiometry    C6H3BrN2
 Framework group  CS[SG(C6H3BrN2)]
 Deg. of freedom    21
 Full point group                 CS      NOp   2
 Rotational constants (GHZ):      5.5952323      0.4593380      0.4244897
 Standard basis: Aug-CC-pVDZ (5D, 7F)
 Integral buffers will be    131072 words long.
 Raffenetti 2 integral format.
 Two-electron integral symmetry is turned off.
   247 basis functions,   534 primitive gaussians,   266 cartesian basis functions
    44 alpha electrons       44 beta electrons
       nuclear repulsion energy       555.9098480430 Hartrees.
 NAtoms=   12 NActive=   12 NUniq=   12 SFac= 1.00D+00 NAtFMM=   50 NAOKFM=F Big=F
 One-electron integrals computed using PRISM.
 NBasis=   247 RedAO= T  NBF=   247
 NBsUse=   247 1.00D-06 NBFU=   247
 Initial guess read from the read-write file.
 B after Tr=     0.000000    0.000000    0.000000
         Rot=    1.000000    0.000000    0.000000    0.000000 Ang=   0.00 deg.
 Harris functional with IExCor=  402 diagonalized for initial guess.
 ExpMin= 2.97D-02 ExpMax= 6.40D+05 ExpMxC= 6.18D+03 IAcc=3 IRadAn=         0 AccDes= 0.00D+00
 HarFok:  IExCor=  402 AccDes= 0.00D+00 IRadAn=         0 IDoV= 1
 ScaDFX=  1.000000  1.000000  1.000000  1.000000
 FoFCou: FMM=F IPFlag=           0 FMFlag=      100000 FMFlg1=           0
         NFxFlg=           0 DoJE=T BraDBF=F KetDBF=T FulRan=T
         Omega=  0.000000  0.000000  1.000000  0.000000  0.000000 ICntrl=     500 IOpCl=  0
         NMat0=    1 NMatS0=    1 NMatT0=    0 NMatD0=    1 NMtDS0=    0 NMtDT0=    0
         I1Cent=           4 NGrid=           0.
 Symmetry not used in FoFCou.
 Requested convergence on RMS density matrix=1.00D-08 within 128 cycles.
 Requested convergence on MAX density matrix=1.00D-06.
 Requested convergence on             energy=1.00D-06.
 No special actions if energy rises.
 SCF Done:  E(RB3LYP) =  -2913.99490675     A.U. after   12 cycles
             Convg  =    0.4190D-08             -V/T =  2.0020
 QCSCF skips out because SCF is already converged.
 Range of M.O.s used for correlation:     1   247
 NBasis=   247 NAE=    44 NBE=    44 NFC=     0 NFV=     0
 NROrb=    247 NOA=    44 NOB=    44 NVA=   203 NVB=   203

 **** Warning!!: The largest alpha MO coefficient is  0.98586612D+02

 Symmetrizing basis deriv contribution to polar:
 IMax=3 JMax=2 DiffMx= 0.00D+00
 Calling FoFJK, ICntrl=      2147 FMM=F ISym2X=0 I1Cent= 0 IOpClX= 0 NMat=1 NMatS=1 NMatT=0.
 -------------------------------------------------------------------
 Center     Atomic                   Forces (Hartrees/Bohr)
 Number     Number              X              Y              Z
 -------------------------------------------------------------------
      1        6          -0.000318619    0.000562371    0.000000000
      2        6           0.000482344    0.000732007    0.000000000
      3        6          -0.000275632    0.002148096    0.000000000
      4        6          -0.000062935    0.000233764    0.000000000
      5        6          -0.000077297    0.000383091    0.000000000
      6        6          -0.000014799    0.000296961    0.000000000
      7        1          -0.000022409    0.000051249    0.000000000
      8        1          -0.000038368   -0.000024587    0.000000000
      9        1          -0.000005111    0.000034186    0.000000000
     10        7           0.001686883   -0.003180955    0.000000000
     11        7          -0.001281059   -0.001772473    0.000000000
     12       35          -0.000072998    0.000536289    0.000000000
 -------------------------------------------------------------------
 Cartesian Forces:  Max     0.003180955 RMS     0.000820272
 IRC-IRC-IRC-IRC-IRC-IRC-IRC-IRC-IRC-IRC-IRC-IRC-IRC-IRC-IRC-IRC-IRC-IRC
 Pt  5 Step number   1 out of a maximum of1000
 CORRECTOR INTEGRATION CONVERGENCE:
   Recorrection delta-x convergence threshold:    0.010000
   Delta-x Convergence Met
 Point Number:   5          Path Number:   1
   CHANGE IN THE REACTION COORDINATE =    0.03579
   NET REACTION COORDINATE UP TO THIS POINT =    0.17895
  # OF POINTS ALONG THE PATH =   5
  # OF STEPS =   1

 Calculating another point on the path.
 IRC-IRC-IRC-IRC-IRC-IRC-IRC-IRC-IRC-IRC-IRC-IRC-IRC-IRC-IRC-IRC-IRC-IRC
                          Input orientation:                          
 ---------------------------------------------------------------------
 Center     Atomic      Atomic             Coordinates (Angstroms)
 Number     Number       Type             X           Y           Z
 ---------------------------------------------------------------------
      1          6           0       -1.219145   -0.223084    0.000000
      2          6           0       -1.236767   -1.638623    0.000000
      3          6           0       -0.010532   -2.145413    0.000000
      4          6           0        1.271670   -1.608891    0.000000
      5          6           0        1.257805   -0.216348    0.000000
      6          6           0        0.011086    0.445338    0.000000
      7          1           0       -2.141066    0.361762    0.000000
      8          1           0        2.191816   -2.193854    0.000000
      9          1           0        2.185940    0.350696    0.000000
     10          7           0       -0.001683   -3.796368    0.000000
     11          7           0       -0.390403   -4.837420    0.000000
     12         35           0        0.029737    2.370004    0.000000
 ---------------------------------------------------------------------
                    Distance matrix (angstroms):
                    1          2          3          4          5
     1  C    0.000000
     2  C    1.415649   0.000000
     3  C    2.270704   1.326834   0.000000
     4  C    2.850372   2.508614   1.389928   0.000000
     5  C    2.476959   2.871543   2.308674   1.392612   0.000000
     6  C    1.400091   2.428997   2.590841   2.410172   1.411430
     7  H    1.091779   2.195289   3.290152   3.940842   3.447685
     8  H    3.939364   3.473249   2.202881   1.090344   2.186986
     9  H    3.453090   3.958827   3.324914   2.162376   1.087646
    10  N    3.774993   2.486221   1.650978   2.531103   3.795109
    11  N    4.688167   3.308872   2.718676   3.631237   4.906210
    12  Br   2.878162   4.203942   4.515597   4.168214   2.863104
                    6          7          8          9         10
     6  C    0.000000
     7  H    2.153774   0.000000
     8  H    3.423582   5.030411   0.000000
     9  H    2.176912   4.327020   2.544557   0.000000
    10  N    4.241725   4.676216   2.716521   4.688692   0.000000
    11  N    5.297992   5.486010   3.695442   5.792589   1.111257
    12  Br   1.924757   2.957266   5.050088   2.954119   6.166452
                   11         12
    11  N    0.000000
    12  Br   7.219659   0.000000
 Symmetry turned off by external request.
 Stoichiometry    C6H3BrN2
 Framework group  CS[SG(C6H3BrN2)]
 Deg. of freedom    21
 Full point group                 CS      NOp   2
 Rotational constants (GHZ):      5.5950845      0.4591519      0.4243299
 Standard basis: Aug-CC-pVDZ (5D, 7F)
 Integral buffers will be    131072 words long.
 Raffenetti 2 integral format.
 Two-electron integral symmetry is turned off.
   247 basis functions,   534 primitive gaussians,   266 cartesian basis functions
    44 alpha electrons       44 beta electrons
       nuclear repulsion energy       555.8666168691 Hartrees.
 NAtoms=   12 NActive=   12 NUniq=   12 SFac= 1.00D+00 NAtFMM=   50 NAOKFM=F Big=F
 One-electron integrals computed using PRISM.
 NBasis=   247 RedAO= T  NBF=   247
 NBsUse=   247 1.00D-06 NBFU=   247
 Initial guess read from the read-write file.
 B after Tr=     0.000000    0.000000    0.000000
         Rot=    1.000000    0.000000    0.000000    0.000000 Ang=   0.00 deg.
 Harris functional with IExCor=  402 diagonalized for initial guess.
 ExpMin= 2.97D-02 ExpMax= 6.40D+05 ExpMxC= 6.18D+03 IAcc=3 IRadAn=         0 AccDes= 0.00D+00
 HarFok:  IExCor=  402 AccDes= 0.00D+00 IRadAn=         0 IDoV= 1
 ScaDFX=  1.000000  1.000000  1.000000  1.000000
 FoFCou: FMM=F IPFlag=           0 FMFlag=      100000 FMFlg1=           0
         NFxFlg=           0 DoJE=T BraDBF=F KetDBF=T FulRan=T
         Omega=  0.000000  0.000000  1.000000  0.000000  0.000000 ICntrl=     500 IOpCl=  0
         NMat0=    1 NMatS0=    1 NMatT0=    0 NMatD0=    1 NMtDS0=    0 NMtDT0=    0
         I1Cent=           4 NGrid=           0.
 Symmetry not used in FoFCou.
 Requested convergence on RMS density matrix=1.00D-08 within 128 cycles.
 Requested convergence on MAX density matrix=1.00D-06.
 Requested convergence on             energy=1.00D-06.
 No special actions if energy rises.
 SCF Done:  E(RB3LYP) =  -2913.99495868     A.U. after   12 cycles
             Convg  =    0.4179D-08             -V/T =  2.0020
 QCSCF skips out because SCF is already converged.
 Range of M.O.s used for correlation:     1   247
 NBasis=   247 NAE=    44 NBE=    44 NFC=     0 NFV=     0
 NROrb=    247 NOA=    44 NOB=    44 NVA=   203 NVB=   203

 **** Warning!!: The largest alpha MO coefficient is  0.98164837D+02

 Symmetrizing basis deriv contribution to polar:
 IMax=3 JMax=2 DiffMx= 0.00D+00
 Calling FoFJK, ICntrl=      2147 FMM=F ISym2X=0 I1Cent= 0 IOpClX= 0 NMat=1 NMatS=1 NMatT=0.
 -------------------------------------------------------------------
 Center     Atomic                   Forces (Hartrees/Bohr)
 Number     Number              X              Y              Z
 -------------------------------------------------------------------
      1        6          -0.000381611    0.000685449    0.000000000
      2        6           0.000574698    0.000873975    0.000000000
      3        6          -0.000327725    0.002552434    0.000000000
      4        6          -0.000070932    0.000284188    0.000000000
      5        6          -0.000095063    0.000451557    0.000000000
      6        6          -0.000018832    0.000345610    0.000000000
      7        1          -0.000026240    0.000060725    0.000000000
      8        1          -0.000044360   -0.000028619    0.000000000
      9        1          -0.000009732    0.000038221    0.000000000
     10        7           0.002012169   -0.003788954    0.000000000
     11        7          -0.001528880   -0.002116187    0.000000000
     12       35          -0.000083493    0.000641601    0.000000000
 -------------------------------------------------------------------
 Cartesian Forces:  Max     0.003788954 RMS     0.000977504
 IRC-IRC-IRC-IRC-IRC-IRC-IRC-IRC-IRC-IRC-IRC-IRC-IRC-IRC-IRC-IRC-IRC-IRC
 Pt  6 Step number   1 out of a maximum of1000
 CORRECTOR INTEGRATION CONVERGENCE:
   Recorrection delta-x convergence threshold:    0.010000
   Delta-x Convergence Met
 Point Number:   6          Path Number:   1
   CHANGE IN THE REACTION COORDINATE =    0.03579
   NET REACTION COORDINATE UP TO THIS POINT =    0.21475
  # OF POINTS ALONG THE PATH =   6
  # OF STEPS =   1

 Calculating another point on the path.
 IRC-IRC-IRC-IRC-IRC-IRC-IRC-IRC-IRC-IRC-IRC-IRC-IRC-IRC-IRC-IRC-IRC-IRC
                          Input orientation:                          
 ---------------------------------------------------------------------
 Center     Atomic      Atomic             Coordinates (Angstroms)
 Number     Number       Type             X           Y           Z
 ---------------------------------------------------------------------
      1          6           0       -1.219525   -0.222403    0.000000
      2          6           0       -1.236195   -1.637758    0.000000
      3          6           0       -0.010860   -2.142889    0.000000
      4          6           0        1.271601   -1.608612    0.000000
      5          6           0        1.257708   -0.215902    0.000000
      6          6           0        0.011067    0.445679    0.000000
      7          1           0       -2.141382    0.362489    0.000000
      8          1           0        2.191303   -2.194189    0.000000
      9          1           0        2.185837    0.351156    0.000000
     10          7           0        0.000027   -3.799571    0.000000
     11          7           0       -0.391703   -4.839224    0.000000
     12         35           0        0.029725    2.370101    0.000000
 ---------------------------------------------------------------------
                    Distance matrix (angstroms):
                    1          2          3          4          5
     1  C    0.000000
     2  C    1.415453   0.000000
     3  C    2.269171   1.325369   0.000000
     4  C    2.850839   2.507966   1.389301   0.000000
     5  C    2.477241   2.870754   2.307064   1.392780   0.000000
     6  C    1.400246   2.428245   2.588661   2.410199   1.411312
     7  H    1.091750   2.195529   3.288775   3.941281   3.447948
     8  H    3.939757   3.472371   2.202761   1.090299   2.187515
     9  H    3.453326   3.958041   3.323513   2.162526   1.087648
    10  N    3.779344   2.490318   1.656718   2.533219   3.797953
    11  N    4.690451   3.310975   2.723098   3.633653   4.908734
    12  Br   2.877794   4.203033   4.513172   4.168023   2.862752
                    6          7          8          9         10
     6  C    0.000000
     7  H    2.154056   0.000000
     8  H    3.423789   5.030781   0.000000
     9  H    2.176824   4.327234   2.545351   0.000000
    10  N    4.245265   4.680638   2.716421   4.691087   0.000000
    11  N    5.300229   5.488096   3.697043   5.795149   1.111004
    12  Br   1.924512   2.957062   5.050264   2.953804   6.169744
                   11         12
    11  N    0.000000
    12  Br   7.221632   0.000000
 Symmetry turned off by external request.
 Stoichiometry    C6H3BrN2
 Framework group  CS[SG(C6H3BrN2)]
 Deg. of freedom    21
 Full point group                 CS      NOp   2
 Rotational constants (GHZ):      5.5949163      0.4589659      0.4241701
 Standard basis: Aug-CC-pVDZ (5D, 7F)
 Integral buffers will be    131072 words long.
 Raffenetti 2 integral format.
 Two-electron integral symmetry is turned off.
   247 basis functions,   534 primitive gaussians,   266 cartesian basis functions
    44 alpha electrons       44 beta electrons
       nuclear repulsion energy       555.8236080066 Hartrees.
 NAtoms=   12 NActive=   12 NUniq=   12 SFac= 1.00D+00 NAtFMM=   50 NAOKFM=F Big=F
 One-electron integrals computed using PRISM.
 NBasis=   247 RedAO= T  NBF=   247
 NBsUse=   247 1.00D-06 NBFU=   247
 Initial guess read from the read-write file.
 B after Tr=     0.000000    0.000000    0.000000
         Rot=    1.000000    0.000000    0.000000    0.000000 Ang=   0.00 deg.
 Harris functional with IExCor=  402 diagonalized for initial guess.
 ExpMin= 2.97D-02 ExpMax= 6.40D+05 ExpMxC= 6.18D+03 IAcc=3 IRadAn=         0 AccDes= 0.00D+00
 HarFok:  IExCor=  402 AccDes= 0.00D+00 IRadAn=         0 IDoV= 1
 ScaDFX=  1.000000  1.000000  1.000000  1.000000
 FoFCou: FMM=F IPFlag=           0 FMFlag=      100000 FMFlg1=           0
         NFxFlg=           0 DoJE=T BraDBF=F KetDBF=T FulRan=T
         Omega=  0.000000  0.000000  1.000000  0.000000  0.000000 ICntrl=     500 IOpCl=  0
         NMat0=    1 NMatS0=    1 NMatT0=    0 NMatD0=    1 NMtDS0=    0 NMtDT0=    0
         I1Cent=           4 NGrid=           0.
 Symmetry not used in FoFCou.
 Requested convergence on RMS density matrix=1.00D-08 within 128 cycles.
 Requested convergence on MAX density matrix=1.00D-06.
 Requested convergence on             energy=1.00D-06.
 No special actions if energy rises.
 SCF Done:  E(RB3LYP) =  -2913.99501974     A.U. after   12 cycles
             Convg  =    0.4148D-08             -V/T =  2.0020
 QCSCF skips out because SCF is already converged.
 Range of M.O.s used for correlation:     1   247
 NBasis=   247 NAE=    44 NBE=    44 NFC=     0 NFV=     0
 NROrb=    247 NOA=    44 NOB=    44 NVA=   203 NVB=   203

 **** Warning!!: The largest alpha MO coefficient is  0.97721118D+02

 Symmetrizing basis deriv contribution to polar:
 IMax=3 JMax=2 DiffMx= 0.00D+00
 Calling FoFJK, ICntrl=      2147 FMM=F ISym2X=0 I1Cent= 0 IOpClX= 0 NMat=1 NMatS=1 NMatT=0.
 -------------------------------------------------------------------
 Center     Atomic                   Forces (Hartrees/Bohr)
 Number     Number              X              Y              Z
 -------------------------------------------------------------------
      1        6          -0.000445547    0.000795009    0.000000000
      2        6           0.000654822    0.001022521    0.000000000
      3        6          -0.000370209    0.002940393    0.000000000
      4        6          -0.000073627    0.000325264    0.000000000
      5        6          -0.000109871    0.000524442    0.000000000
      6        6          -0.000024896    0.000413783    0.000000000
      7        1          -0.000031523    0.000071587    0.000000000
      8        1          -0.000051162   -0.000031991    0.000000000
      9        1          -0.000009828    0.000045506    0.000000000
     10        7           0.002328201   -0.004400811    0.000000000
     11        7          -0.001772338   -0.002455405    0.000000000
     12       35          -0.000094022    0.000749702    0.000000000
 -------------------------------------------------------------------
 Cartesian Forces:  Max     0.004400811 RMS     0.001132827
 IRC-IRC-IRC-IRC-IRC-IRC-IRC-IRC-IRC-IRC-IRC-IRC-IRC-IRC-IRC-IRC-IRC-IRC
 Pt  7 Step number   1 out of a maximum of1000
 CORRECTOR INTEGRATION CONVERGENCE:
   Recorrection delta-x convergence threshold:    0.010000
   Delta-x Convergence Met
 Point Number:   7          Path Number:   1
   CHANGE IN THE REACTION COORDINATE =    0.03579
   NET REACTION COORDINATE UP TO THIS POINT =    0.25054
  # OF POINTS ALONG THE PATH =   7
  # OF STEPS =   1

 Calculating another point on the path.
 IRC-IRC-IRC-IRC-IRC-IRC-IRC-IRC-IRC-IRC-IRC-IRC-IRC-IRC-IRC-IRC-IRC-IRC
                          Input orientation:                          
 ---------------------------------------------------------------------
 Center     Atomic      Atomic             Coordinates (Angstroms)
 Number     Number       Type             X           Y           Z
 ---------------------------------------------------------------------
      1          6           0       -1.219906   -0.221720    0.000000
      2          6           0       -1.235634   -1.636887    0.000000
      3          6           0       -0.011179   -2.140382    0.000000
      4          6           0        1.271540   -1.608335    0.000000
      5          6           0        1.257613   -0.215452    0.000000
      6          6           0        0.011046    0.446035    0.000000
      7          1           0       -2.141702    0.363219    0.000000
      8          1           0        2.190801   -2.194516    0.000000
      9          1           0        2.185739    0.351620    0.000000
     10          7           0        0.001733   -3.802785    0.000000
     11          7           0       -0.393003   -4.841033    0.000000
     12         35           0        0.029713    2.370199    0.000000
 ---------------------------------------------------------------------
                    Distance matrix (angstroms):
                    1          2          3          4          5
     1  C    0.000000
     2  C    1.415254   0.000000
     3  C    2.267660   1.323932   0.000000
     4  C    2.851316   2.507336   1.388684   0.000000
     5  C    2.477526   2.869974   2.305469   1.392953   0.000000
     6  C    1.400407   2.427503   2.586512   2.410245   1.411203
     7  H    1.091724   2.195764   3.287422   3.941731   3.448217
     8  H    3.940158   3.471513   2.202645   1.090251   2.188043
     9  H    3.453569   3.957265   3.322126   2.162680   1.087653
    10  N    3.783705   2.494432   1.662453   2.535354   3.800814
    11  N    4.692741   3.313092   2.727509   3.636075   4.911266
    12  Br   2.877428   4.202123   4.510766   4.167838   2.862399
                    6          7          8          9         10
     6  C    0.000000
     7  H    2.154340   0.000000
     8  H    3.424009   5.031161   0.000000
     9  H    2.176741   4.327456   2.546141   0.000000
    10  N    4.248830   4.685072   2.716349   4.693503   0.000000
    11  N    5.302485   5.490189   3.698662   5.797720   1.110754
    12  Br   1.924255   2.956859   5.050438   2.953491   6.173048
                   11         12
    11  N    0.000000
    12  Br   7.223611   0.000000
 Symmetry turned off by external request.
 Stoichiometry    C6H3BrN2
 Framework group  CS[SG(C6H3BrN2)]
 Deg. of freedom    21
 Full point group                 CS      NOp   2
 Rotational constants (GHZ):      5.5946939      0.4587786      0.4240088
 Standard basis: Aug-CC-pVDZ (5D, 7F)
 Integral buffers will be    131072 words long.
 Raffenetti 2 integral format.
 Two-electron integral symmetry is turned off.
   247 basis functions,   534 primitive gaussians,   266 cartesian basis functions
    44 alpha electrons       44 beta electrons
       nuclear repulsion energy       555.7800755503 Hartrees.
 NAtoms=   12 NActive=   12 NUniq=   12 SFac= 1.00D+00 NAtFMM=   50 NAOKFM=F Big=F
 One-electron integrals computed using PRISM.
 NBasis=   247 RedAO= T  NBF=   247
 NBsUse=   247 1.00D-06 NBFU=   247
 Initial guess read from the read-write file.
 B after Tr=     0.000000    0.000000    0.000000
         Rot=    1.000000    0.000000    0.000000    0.000000 Ang=   0.00 deg.
 Harris functional with IExCor=  402 diagonalized for initial guess.
 ExpMin= 2.97D-02 ExpMax= 6.40D+05 ExpMxC= 6.18D+03 IAcc=3 IRadAn=         0 AccDes= 0.00D+00
 HarFok:  IExCor=  402 AccDes= 0.00D+00 IRadAn=         0 IDoV= 1
 ScaDFX=  1.000000  1.000000  1.000000  1.000000
 FoFCou: FMM=F IPFlag=           0 FMFlag=      100000 FMFlg1=           0
         NFxFlg=           0 DoJE=T BraDBF=F KetDBF=T FulRan=T
         Omega=  0.000000  0.000000  1.000000  0.000000  0.000000 ICntrl=     500 IOpCl=  0
         NMat0=    1 NMatS0=    1 NMatT0=    0 NMatD0=    1 NMtDS0=    0 NMtDT0=    0
         I1Cent=           4 NGrid=           0.
 Symmetry not used in FoFCou.
 Requested convergence on RMS density matrix=1.00D-08 within 128 cycles.
 Requested convergence on MAX density matrix=1.00D-06.
 Requested convergence on             energy=1.00D-06.
 No special actions if energy rises.
 SCF Done:  E(RB3LYP) =  -2913.99508976     A.U. after   12 cycles
             Convg  =    0.4122D-08             -V/T =  2.0020
 QCSCF skips out because SCF is already converged.
 Range of M.O.s used for correlation:     1   247
 NBasis=   247 NAE=    44 NBE=    44 NFC=     0 NFV=     0
 NROrb=    247 NOA=    44 NOB=    44 NVA=   203 NVB=   203

 **** Warning!!: The largest alpha MO coefficient is  0.97256902D+02

 Symmetrizing basis deriv contribution to polar:
 IMax=3 JMax=2 DiffMx= 0.00D+00
 Calling FoFJK, ICntrl=      2147 FMM=F ISym2X=0 I1Cent= 0 IOpClX= 0 NMat=1 NMatS=1 NMatT=0.
 -------------------------------------------------------------------
 Center     Atomic                   Forces (Hartrees/Bohr)
 Number     Number              X              Y              Z
 -------------------------------------------------------------------
      1        6          -0.000508367    0.000909449    0.000000000
      2        6           0.000737195    0.001167107    0.000000000
      3        6          -0.000413804    0.003315858    0.000000000
      4        6          -0.000081185    0.000369125    0.000000000
      5        6          -0.000126152    0.000590984    0.000000000
      6        6          -0.000030668    0.000475813    0.000000000
      7        1          -0.000035867    0.000081346    0.000000000
      8        1          -0.000055727   -0.000035496    0.000000000
      9        1          -0.000010754    0.000051771    0.000000000
     10        7           0.002640112   -0.004996624    0.000000000
     11        7          -0.002010044   -0.002788455    0.000000000
     12       35          -0.000104737    0.000859123    0.000000000
 -------------------------------------------------------------------
 Cartesian Forces:  Max     0.004996624 RMS     0.001284620
 IRC-IRC-IRC-IRC-IRC-IRC-IRC-IRC-IRC-IRC-IRC-IRC-IRC-IRC-IRC-IRC-IRC-IRC
 Pt  8 Step number   1 out of a maximum of1000
 CORRECTOR INTEGRATION CONVERGENCE:
   Recorrection delta-x convergence threshold:    0.010000
   Delta-x Convergence Met
 Point Number:   8          Path Number:   1
   CHANGE IN THE REACTION COORDINATE =    0.03579
   NET REACTION COORDINATE UP TO THIS POINT =    0.28633
  # OF POINTS ALONG THE PATH =   8
  # OF STEPS =   1

 Calculating another point on the path.
 IRC-IRC-IRC-IRC-IRC-IRC-IRC-IRC-IRC-IRC-IRC-IRC-IRC-IRC-IRC-IRC-IRC-IRC
                          Input orientation:                          
 ---------------------------------------------------------------------
 Center     Atomic      Atomic             Coordinates (Angstroms)
 Number     Number       Type             X           Y           Z
 ---------------------------------------------------------------------
      1          6           0       -1.220290   -0.221032    0.000000
      2          6           0       -1.235077   -1.636007    0.000000
      3          6           0       -0.011493   -2.137889    0.000000
      4          6           0        1.271480   -1.608059    0.000000
      5          6           0        1.257516   -0.215006    0.000000
      6          6           0        0.011023    0.446396    0.000000
      7          1           0       -2.142026    0.363952    0.000000
      8          1           0        2.190309   -2.194831    0.000000
      9          1           0        2.185640    0.352082    0.000000
     10          7           0        0.003440   -3.806005    0.000000
     11          7           0       -0.394303   -4.842842    0.000000
     12         35           0        0.029701    2.370298    0.000000
 ---------------------------------------------------------------------
                    Distance matrix (angstroms):
                    1          2          3          4          5
     1  C    0.000000
     2  C    1.415053   0.000000
     3  C    2.266171   1.322513   0.000000
     4  C    2.851800   2.506713   1.388071   0.000000
     5  C    2.477813   2.869192   2.303879   1.393122   0.000000
     6  C    1.400568   2.426760   2.584382   2.410298   1.411098
     7  H    1.091697   2.195995   3.286088   3.942189   3.448489
     8  H    3.940567   3.470670   2.202538   1.090205   2.188563
[...]
 316                   -0.03570   8.55393
 317                   -0.03575   8.58972
 318                   -0.03579   8.62552
 319                   -0.03584   8.66131
 320                   -0.03589   8.69710
 321                   -0.03593   8.73290
 322                   -0.03598   8.76869
 323                   -0.03602   8.80449
 324                   -0.03607   8.84028
 325                   -0.03611   8.87608
 326                   -0.03615   8.91187
 327                   -0.03620   8.94767
 328                   -0.03624   8.98346
 329                   -0.03628   9.01926
 330                   -0.03632   9.05505
 331                   -0.03636   9.09084
 332                   -0.03640   9.12664
 333                   -0.03644   9.16243
 334                   -0.03648   9.19822
 335                   -0.03652   9.23402
 336                   -0.03655   9.26981
 337                   -0.03659   9.30560
 338                   -0.03663   9.34139
 339                   -0.03666   9.37717
 340                   -0.03670   9.41296
 341                   -0.03674   9.44874
 342                   -0.03677   9.48451
 343                   -0.03681   9.52029
 344                   -0.03684   9.55605
 345                   -0.03687   9.59181
 346                   -0.03691   9.62757
 347                   -0.03694   9.66332
 348                   -0.03697   9.69908
 349                   -0.03700   9.73484
 350                   -0.03703   9.77061
 351                   -0.03706   9.80638
 352                   -0.03709   9.84215
 353                   -0.03712   9.87793
 354                   -0.03715   9.91371
 355                   -0.03718   9.94950
 356                   -0.03721   9.98528
 357                   -0.03724  10.02107
 358                   -0.03727  10.05686
 359                   -0.03730  10.09265
 360                   -0.03732  10.12844
 361                   -0.03735  10.16423
 362                   -0.03738  10.20003
 363                   -0.03740  10.23582
 364                   -0.03743  10.27161
 365                   -0.03746  10.30740
 366                   -0.03748  10.34319
 367                   -0.03751  10.37898
 368                   -0.03753  10.41477
 369                   -0.03755  10.45056
 370                   -0.03758  10.48635
 371                   -0.03760  10.52214
 372                   -0.03762  10.55793
 373                   -0.03765  10.59372
 374                   -0.03767  10.62951
 375                   -0.03769  10.66530
 376                   -0.03771  10.70108
 377                   -0.03774  10.73687
 378                   -0.03776  10.77266
 379                   -0.03778  10.80844
 380                   -0.03780  10.84423
 381                   -0.03782  10.88002
 382                   -0.03784  10.91580
 383                   -0.03786  10.95159
 384                   -0.03788  10.98738
 385                   -0.03790  11.02317
 386                   -0.03792  11.05895
 387                   -0.03794  11.09474
 388                   -0.03796  11.13053
 389                   -0.03797  11.16632
 390                   -0.03799  11.20211
 391                   -0.03801  11.23790
 392                   -0.03803  11.27369
 393                   -0.03804  11.30948
 394                   -0.03806  11.34527
 395                   -0.03808  11.38106
 396                   -0.03809  11.41685
 397                   -0.03811  11.45264
 398                   -0.03813  11.48843
 399                   -0.03814  11.52422
 400                   -0.03816  11.56002
 401                   -0.03817  11.59581
 402                   -0.03819  11.63160
 403                   -0.03820  11.66739
 404                   -0.03822  11.70319
 405                   -0.03823  11.73898
 406                   -0.03825  11.77477
 407                   -0.03826  11.81056
 408                   -0.03828  11.84635
 409                   -0.03829  11.88214
 410                   -0.03830  11.91793
 411                   -0.03832  11.95372
 412                   -0.03833  11.98952
 413                   -0.03834  12.02531
 414                   -0.03836  12.06110
 415                   -0.03837  12.09689
 416                   -0.03838  12.13269
 417                   -0.03839  12.16848
 418                   -0.03841  12.20428
 419                   -0.03842  12.24007
 420                   -0.03843  12.27587
 421                   -0.03844  12.31166
 422                   -0.03845  12.34745
 423                   -0.03846  12.38324
 424                   -0.03847  12.41903
 425                   -0.03849  12.45482
 426                   -0.03850  12.49062
 427                   -0.03851  12.52641
 428                   -0.03852  12.56220
 429                   -0.03853  12.59798
 430                   -0.03854  12.63377
 431                   -0.03855  12.66956
 432                   -0.03856  12.70535
 433                   -0.03857  12.74114
 434                   -0.03858  12.77693
 435                   -0.03859  12.81272
 436                   -0.03859  12.84851
 437                   -0.03860  12.88430
 438                   -0.03861  12.92009
 439                   -0.03862  12.95588
 440                   -0.03863  12.99167
 441                   -0.03864  13.02746
 442                   -0.03865  13.06325
 443                   -0.03866  13.09904
 444                   -0.03866  13.13483
 445                   -0.03867  13.17062
 446                   -0.03868  13.20640
 447                   -0.03869  13.24219
 448                   -0.03870  13.27797
 449                   -0.03870  13.31376
 450                   -0.03871  13.34954
 451                   -0.03872  13.38532
 452                   -0.03873  13.42111
 453                   -0.03873  13.45689
 454                   -0.03874  13.49268
 455                   -0.03875  13.52850
 --------------------------------------------------------------------------
 
 Total number of points:                  454
 Total number of gradient calculations:   456
 Total number of Hessian calculations:      1
 IRC-IRC-IRC-IRC-IRC-IRC-IRC-IRC-IRC-IRC-IRC-IRC-IRC-IRC-IRC-IRC-IRC-IRC
                          Input orientation:                          
 ---------------------------------------------------------------------
 Center     Atomic      Atomic             Coordinates (Angstroms)
 Number     Number       Type             X           Y           Z
 ---------------------------------------------------------------------
      1          6           0       -1.235854   -0.229386    0.000000
      2          6           0       -1.335133   -1.648237    0.000000
      3          6           0       -0.054059   -2.231103    0.000000
      4          6           0        1.233686   -1.628369    0.000000
      5          6           0        1.239420   -0.250348    0.000000
      6          6           0       -0.007387    0.425216    0.000000
      7          1           0       -2.145553    0.375656    0.000000
      8          1           0        2.158505   -2.207326    0.000000
      9          1           0        2.172333    0.308613    0.000000
     10          7           0       -0.092473   -3.623542    0.000000
     11          7           0       -0.190469   -4.737051    0.000000
     12         35           0        0.045721    2.348773    0.000000
 ---------------------------------------------------------------------
                    Distance matrix (angstroms):
                    1          2          3          4          5
     1  C    0.000000
     2  C    1.422319   0.000000
     3  C    2.324544   1.407439   0.000000
     4  C    2.838271   2.568897   1.421822   0.000000
     5  C    2.475363   2.929577   2.365688   1.378033   0.000000
     6  C    1.391990   2.462137   2.656729   2.399474   1.418068
     7  H    1.092533   2.180120   3.342086   3.928788   3.442372
     8  H    3.928602   3.538091   2.212692   1.091091   2.162054
     9  H    3.450389   4.016414   3.377422   2.152431   1.087549
    10  N    3.581566   2.333674   1.392969   2.395707   3.626621
    11  N    4.627296   3.294090   2.509658   3.419375   4.709043
    12  Br   2.879121   4.228811   4.580962   4.150773   2.860131
                    6          7          8          9         10
     6  C    0.000000
     7  H    2.138740   0.000000
     8  H    3.409012   5.019632   0.000000
     9  H    2.182837   4.318406   2.515977   0.000000
    10  N    4.049652   4.495411   2.659430   4.537752   0.000000
    11  N    5.165513   5.473767   3.452128   5.571495   1.117813
    12  Br   1.924289   2.948706   5.022140   2.946987   5.973913
                   11         12
    11  N    0.000000
    12  Br   7.089759   0.000000
 Symmetry turned off by external request.
 Stoichiometry    C6H3BrN2
 Framework group  C1[X(C6H3BrN2)]
 Deg. of freedom    30
 Full point group                 C1      NOp   1
 Rotational constants (GHZ):      5.5699412      0.4736828      0.4365568

 **********************************************************************

            Population analysis using the SCF density.

 **********************************************************************

 Alpha  occ. eigenvalues -- -482.89155 -62.54262 -56.35959 -56.35634 -56.35609
 Alpha  occ. eigenvalues --  -14.54690 -14.50305 -10.27973 -10.26913 -10.24149
 Alpha  occ. eigenvalues --  -10.22636 -10.20629 -10.17765  -8.72329  -6.55291
 Alpha  occ. eigenvalues --   -6.54111  -6.54032  -2.66336  -2.66010  -2.65951
 Alpha  occ. eigenvalues --   -2.65009  -2.65008  -1.19869  -0.92168  -0.86307
 Alpha  occ. eigenvalues --   -0.79778  -0.76845  -0.68588  -0.63990  -0.58078
 Alpha  occ. eigenvalues --   -0.55190  -0.54303  -0.53113  -0.49061  -0.47066
 Alpha  occ. eigenvalues --   -0.45115  -0.41426  -0.40470  -0.37143  -0.33514
 Alpha  occ. eigenvalues --   -0.30171  -0.27601  -0.26979  -0.20803
 Alpha virt. eigenvalues --   -0.11717  -0.10375  -0.03463  -0.02745  -0.01251
 Alpha virt. eigenvalues --   -0.01125   0.00404   0.01284   0.03374   0.04003
 Alpha virt. eigenvalues --    0.04177   0.04619   0.06439   0.06509   0.07366
 Alpha virt. eigenvalues --    0.07663   0.07892   0.08757   0.09596   0.10301
 Alpha virt. eigenvalues --    0.10355   0.10649   0.11459   0.11524   0.11969
 Alpha virt. eigenvalues --    0.12152   0.13518   0.13798   0.14212   0.15619
 Alpha virt. eigenvalues --    0.16266   0.17025   0.17281   0.17898   0.18058
 Alpha virt. eigenvalues --    0.19428   0.19882   0.20411   0.21353   0.22268
 Alpha virt. eigenvalues --    0.23106   0.24013   0.24637   0.25221   0.25989
 Alpha virt. eigenvalues --    0.26528   0.26618   0.26988   0.28328   0.29038
 Alpha virt. eigenvalues --    0.29517   0.29695   0.30768   0.31377   0.32076
 Alpha virt. eigenvalues --    0.33057   0.36144   0.36240   0.36803   0.39315
 Alpha virt. eigenvalues --    0.39459   0.39979   0.41613   0.43214   0.43610
 Alpha virt. eigenvalues --    0.45606   0.45923   0.46710   0.47901   0.49436
 Alpha virt. eigenvalues --    0.51305   0.52074   0.52169   0.53295   0.53755
 Alpha virt. eigenvalues --    0.54098   0.55219   0.55534   0.56832   0.57438
 Alpha virt. eigenvalues --    0.58800   0.59171   0.60735   0.61342   0.61546
 Alpha virt. eigenvalues --    0.62279   0.63473   0.63728   0.64713   0.67762
 Alpha virt. eigenvalues --    0.68991   0.69273   0.70350   0.70721   0.71545
 Alpha virt. eigenvalues --    0.72034   0.72835   0.74235   0.74498   0.75525
 Alpha virt. eigenvalues --    0.76249   0.76413   0.77250   0.79728   0.79850
 Alpha virt. eigenvalues --    0.81175   0.81707   0.81743   0.84946   0.87090
 Alpha virt. eigenvalues --    0.87624   0.88101   0.89314   0.92325   0.95360
 Alpha virt. eigenvalues --    0.97185   0.98654   1.04021   1.04227   1.04758
 Alpha virt. eigenvalues --    1.06163   1.07285   1.07441   1.09346   1.09846
 Alpha virt. eigenvalues --    1.12105   1.15340   1.17291   1.18798   1.23331
 Alpha virt. eigenvalues --    1.24067   1.25863   1.28065   1.30766   1.31272
 Alpha virt. eigenvalues --    1.34176   1.35422   1.37387   1.38569   1.39315
 Alpha virt. eigenvalues --    1.41947   1.42180   1.43287   1.45093   1.46994
 Alpha virt. eigenvalues --    1.48313   1.48952   1.52003   1.53782   1.54386
 Alpha virt. eigenvalues --    1.56051   1.59178   1.60558   1.64401   1.65559
 Alpha virt. eigenvalues --    1.65773   1.67022   1.71173   1.71558   1.76143
 Alpha virt. eigenvalues --    1.76495   1.79160   1.86101   1.88287   1.88717
 Alpha virt. eigenvalues --    1.88950   1.91517   1.93116   1.95436   2.00382
 Alpha virt. eigenvalues --    2.00699   2.02610   2.02658   2.04097   2.05758
 Alpha virt. eigenvalues --    2.07694   2.10863   2.18452   2.18688   2.20669
 Alpha virt. eigenvalues --    2.26325   2.26416   2.29051   2.33908   2.36394
 Alpha virt. eigenvalues --    2.38932   2.42079   2.51949   2.56613   2.63322
 Alpha virt. eigenvalues --    2.65470   2.73814   2.79318   2.81541   2.85896
 Alpha virt. eigenvalues --    2.90731   3.00951   3.08090   3.10320   3.16039
 Alpha virt. eigenvalues --    3.28556   3.42161   3.64563
          Condensed to atoms (all electrons):
              1          2          3          4          5          6
     1  C    9.651668   0.290353  -0.250677  -1.421376  -1.491913  -1.046480
     2  C    0.290353  10.465305  -0.486476  -0.205370  -1.303325  -0.745895
     3  C   -0.250677  -0.486476  10.779220  -4.461162   0.838440  -1.698198
     4  C   -1.421376  -0.205370  -4.461162  15.439465  -3.415379   0.478233
     5  C   -1.491913  -1.303325   0.838440  -3.415379  13.726810  -2.170420
     6  C   -1.046480  -0.745895  -1.698198   0.478233  -2.170420  10.389530
     7  H   -0.654087  -0.399397   0.018686   0.007874   0.223723   0.136022
     8  H    0.106679   0.027716   1.412606  -2.205806   0.731788  -0.614344
     9  H    0.287319   0.067363  -0.655799   0.622621  -1.890959   0.860962
    10  N   -0.089858  -0.189115   0.344072   0.280915  -0.282486   0.042855
    11  N    0.022348   0.038026  -1.030850  -0.041741   0.065701  -0.017013
    12  Br  -0.040491  -0.012306   0.066966  -0.076610   0.068242   0.022991
              7          8          9         10         11         12
     1  C   -0.654087   0.106679   0.287319  -0.089858   0.022348  -0.040491
     2  C   -0.399397   0.027716   0.067363  -0.189115   0.038026  -0.012306
     3  C    0.018686   1.412606  -0.655799   0.344072  -1.030850   0.066966
     4  C    0.007874  -2.205806   0.622621   0.280915  -0.041741  -0.076610
     5  C    0.223723   0.731788  -1.890959  -0.282486   0.065701   0.068242
     6  C    0.136022  -0.614344   0.860962   0.042855  -0.017013   0.022991
     7  H    2.445921   0.005488  -0.013681  -0.019104   0.003652  -0.090536
     8  H    0.005488   2.731245  -0.224328  -0.209953   0.022238   0.004937
     9  H   -0.013681  -0.224328   2.771926   0.006707   0.003469  -0.073948
    10  N   -0.019104  -0.209953   0.006707   7.547220  -0.915912  -0.001464
    11  N    0.003652   0.022238   0.003469  -0.915912   9.703128   0.000016
    12  Br  -0.090536   0.004937  -0.073948  -0.001464   0.000016  35.023458
 Mulliken atomic charges:
              1
     1  C    0.636513
     2  C   -1.546879
     3  C    1.123170
     4  C    0.998335
     5  C    0.899778
     6  C    0.361756
     7  H   -0.664562
     8  H   -0.788265
     9  H   -0.761651
    10  N    0.486123
    11  N   -0.853063
    12  Br   0.108745
 Sum of Mulliken atomic charges =   0.00000
 Mulliken charges with hydrogens summed into heavy atoms:
              1
     1  C   -0.028049
     2  C   -1.546879
     3  C    1.123170
     4  C    0.210070
     5  C    0.138127
     6  C    0.361756
    10  N    0.486123
    11  N   -0.853063
    12  Br   0.108745
 Sum of Mulliken charges with hydrogens summed into heavy atoms =   0.00000
 APT atomic charges:
              1
     1  C   -0.378283
     2  C   -0.305277
     3  C    0.086247
     4  C    0.808422
     5  C   -0.069215
     6  C    0.721679
     7  H   -0.149098
     8  H   -0.265754
     9  H   -0.159071
    10  N   -1.960591
    11  N    1.552076
    12  Br   0.118865
 Sum of APT charges=   0.00000
 APT Atomic charges with hydrogens summed into heavy atoms:
              1
     1  C   -0.527380
     2  C   -0.305277
     3  C    0.086247
     4  C    0.542668
     5  C   -0.228286
     6  C    0.721679
     7  H    0.000000
     8  H    0.000000
     9  H    0.000000
    10  N   -1.960591
    11  N    1.552076
    12  Br   0.118865
 Sum of APT charges=   0.00000
 Electronic spatial extent (au):  <R**2>=           2153.3300
 Charge=              0.0000 electrons
 Dipole moment (field-independent basis, Debye):
    X=              3.6461    Y=             -2.0250    Z=              0.0000  Tot=              4.1707
 Quadrupole moment (field-independent basis, Debye-Ang):
   XX=            -65.8077   YY=            -57.4052   ZZ=            -65.8584
   XY=             -8.4122   XZ=              0.0000   YZ=              0.0000
 Traceless Quadrupole moment (field-independent basis, Debye-Ang):
   XX=             -2.7840   YY=              5.6186   ZZ=             -2.8346
   XY=             -8.4122   XZ=              0.0000   YZ=              0.0000
 Octapole moment (field-independent basis, Debye-Ang**2):
  XXX=             24.3035  YYY=             73.8262  ZZZ=              0.0000  XYY=             19.4860
  XXY=             42.4606  XXZ=              0.0000  XZZ=              1.1961  YZZ=             31.6683
  YYZ=              0.0000  XYZ=              0.0000
 Hexadecapole moment (field-independent basis, Debye-Ang**3):
 XXXX=           -357.9324 YYYY=          -2092.6630 ZZZZ=            -77.2961 XXXY=            -73.3227
 XXXZ=              0.0000 YYYX=            -68.7917 YYYZ=              0.0000 ZZZX=              0.0000
 ZZZY=              0.0000 XXYY=           -439.4259 XXZZ=            -77.4350 YYZZ=           -377.0499
 XXYZ=              0.0000 YYXZ=              0.0000 ZZXY=             -9.9105
 N-N= 5.605158047756D+02 E-N=-8.060802101087D+03  KE= 2.908128866841D+03
  Exact polarizability:   0.000   0.000   0.000   0.000   0.000   0.000
 Approx polarizability: 180.701   8.490 365.301   0.000   0.000 102.784
 -------------------------------------------------------------------
 Center     Atomic                   Forces (Hartrees/Bohr)
 Number     Number              X              Y              Z
 -------------------------------------------------------------------
      1        6          -0.000041275   -0.000008034    0.000000000
      2        6           0.000017115    0.000034437    0.000000000
      3        6          -0.000012226   -0.000252665   -0.000000001
      4        6          -0.000022658    0.000004694    0.000000000
      5        6           0.000078204    0.000087432    0.000000000
      6        6          -0.000014596    0.000001698    0.000000000
      7        1           0.000006078    0.000007971    0.000000000
      8        1          -0.000007080    0.000014100    0.000000000
      9        1          -0.000080769   -0.000034046    0.000000000
     10        7          -0.000025197    0.000508532    0.000000002
     11        7           0.000056923   -0.000366165   -0.000000001
     12       35           0.000045482    0.000002047    0.000000000
 -------------------------------------------------------------------
 Cartesian Forces:  Max     0.000508532 RMS     0.000116477

 This type of calculation cannot be archived.


 THE 2ND LAW OF THERMODYNAMICS HAS THE SAME
 DEGREE OF TRUTH AS THE STATEMENT THAT IF YOU THROW
 A TUMBLERFULL OF WATER INTO THE SEA, YOU CANNOT GET
 THE SAME TUMBLERFULL OF WATER OUT AGAIN.
          - J.C. MAXWELL, LETTER TO LORD RAYLEIGH, DECEMBER 6,1870
 Job cpu time:  2 days 15 hours 37 minutes 21.6 seconds.
 File lengths (MBytes):  RWF=    106 Int=      0 D2E=      0 Chk=     18 Scr=      1
 Normal termination of Gaussian 09 at Sat Dec 22 18:45:16 2018.
