 Entering Gaussian System, Link 0=/home/ubuntu/g09/g09
 Input=4-CH3O-C6H3-IRC.gjf
 Output=4-CH3O-C6H3-IRC.log
 Initial command:
 /home/ubuntu/g09/l1.exe /home/ubuntu/g09/Gau-20640.inp -scrdir=/home/ubuntu/g09/
 Entering Link 1 = /home/ubuntu/g09/l1.exe PID=     20642.
  
 Copyright (c) 1988,1990,1992,1993,1995,1998,2003,2009,2010,
            Gaussian, Inc.  All Rights Reserved.
  
 This is part of the Gaussian(R) 09 program.  It is based on
 the Gaussian(R) 03 system (copyright 2003, Gaussian, Inc.),
 the Gaussian(R) 98 system (copyright 1998, Gaussian, Inc.),
 the Gaussian(R) 94 system (copyright 1995, Gaussian, Inc.),
 the Gaussian 92(TM) system (copyright 1992, Gaussian, Inc.),
 the Gaussian 90(TM) system (copyright 1990, Gaussian, Inc.),
 the Gaussian 88(TM) system (copyright 1988, Gaussian, Inc.),
 the Gaussian 86(TM) system (copyright 1986, Carnegie Mellon
 University), and the Gaussian 82(TM) system (copyright 1983,
 Carnegie Mellon University). Gaussian is a federally registered
 trademark of Gaussian, Inc.
  
 This software contains proprietary and confidential information,
 including trade secrets, belonging to Gaussian, Inc.
  
 This software is provided under written license and may be
 used, copied, transmitted, or stored only in accord with that
 written license.
  
 The following legend is applicable only to US Government
 contracts under FAR:
  
                    RESTRICTED RIGHTS LEGEND
  
 Use, reproduction and disclosure by the US Government is
 subject to restrictions as set forth in subparagraphs (a)
 and (c) of the Commercial Computer Software - Restricted
 Rights clause in FAR 52.227-19.
  
 Gaussian, Inc.
 340 Quinnipiac St., Bldg. 40, Wallingford CT 06492
  
  
 ---------------------------------------------------------------
 Warning -- This program may not be used in any manner that
 competes with the business of Gaussian, Inc. or will provide
 assistance to any competitor of Gaussian, Inc.  The licensee
 of this program is prohibited from giving any competitor of
 Gaussian, Inc. access to this program.  By using this program,
 the user acknowledges that Gaussian, Inc. is engaged in the
 business of creating and licensing software in the field of
 computational chemistry and represents and warrants to the
 licensee that it is not a competitor of Gaussian, Inc. and that
 it will not use this program in any manner prohibited above.
 ---------------------------------------------------------------
  

 Cite this work as:
 Gaussian 09, Revision B.01,
 M. J. Frisch, G. W. Trucks, H. B. Schlegel, G. E. Scuseria, 
 M. A. Robb, J. R. Cheeseman, G. Scalmani, V. Barone, B. Mennucci, 
 G. A. Petersson, H. Nakatsuji, M. Caricato, X. Li, H. P. Hratchian, 
 A. F. Izmaylov, J. Bloino, G. Zheng, J. L. Sonnenberg, M. Hada, 
 M. Ehara, K. Toyota, R. Fukuda, J. Hasegawa, M. Ishida, T. Nakajima, 
 Y. Honda, O. Kitao, H. Nakai, T. Vreven, J. A. Montgomery, Jr., 
 J. E. Peralta, F. Ogliaro, M. Bearpark, J. J. Heyd, E. Brothers, 
 K. N. Kudin, V. N. Staroverov, T. Keith, R. Kobayashi, J. Normand, 
 K. Raghavachari, A. Rendell, J. C. Burant, S. S. Iyengar, J. Tomasi, 
 M. Cossi, N. Rega, J. M. Millam, M. Klene, J. E. Knox, J. B. Cross, 
 V. Bakken, C. Adamo, J. Jaramillo, R. Gomperts, R. E. Stratmann, 
 O. Yazyev, A. J. Austin, R. Cammi, C. Pomelli, J. W. Ochterski, 
 R. L. Martin, K. Morokuma, V. G. Zakrzewski, G. A. Voth, 
 P. Salvador, J. J. Dannenberg, S. Dapprich, A. D. Daniels, 
 O. Farkas, J. B. Foresman, J. V. Ortiz, J. Cioslowski, 
 and D. J. Fox, Gaussian, Inc., Wallingford CT, 2010.
 
 ******************************************
 Gaussian 09:  EM64L-G09RevB.01 12-Aug-2010
                22-Dec-2018 
 ******************************************
 %chk=4-CH3O-C6H3-IRC.chk
 %mem=500MW
 %nproc=7
 Will use up to    7 processors via shared memory.
 ----------------------------------------------------------------------
 # rb3lyp/aug-cc-pVDZ irc=(calcfc,maxcycle=1000,maxpoints=10000,stepsiz
 e=1) scf=(xqc,maxcycle=1000) nosymm
 ----------------------------------------------------------------------
 1/6=1000,10=4,14=-1,18=10,26=3,38=1,39=1,42=10000,44=3/1,23;
 2/12=2,15=1,17=6,18=5,29=1,40=1/2;
 3/5=16,7=10,11=2,16=1,25=1,30=1,71=2,74=-5,116=1/1,2,3;
 4//1;
 5/5=2,7=1000,8=3,13=1,38=5/2,8;
 8/6=4,10=90,11=11/1;
 11/6=1,8=1,9=11,15=111,16=1,31=1/1,2,10;
 10/6=1,7=6,13=1,31=1/2;
 6/7=2,8=2,9=2,10=2,28=1/1;
 7/10=1,18=20,25=1,30=1/1,2,3,16;
 1/6=1000,10=4,14=-1,18=10,39=1,42=10000,44=3/23(3);
 2/15=1,29=1/2;
 7/9=1,25=1,30=1,44=-1/16;
 99/5=20/99;
 2/15=1,29=1/2;
 3/5=16,7=10,11=2,16=1,25=1,30=1,71=2,74=-5,116=1/1,2,3;
 4/5=5,16=3/1;
 5/5=2,7=1000,8=3,13=1,38=5/2,8;
 8/6=4,10=90,11=11/1;
 11/6=1,8=1,9=11,15=111,16=1,31=1/1,2,10;
 10/6=1,7=6,13=1,31=1/2;
 7/10=1,18=20,25=1,30=1/1,2,3,16;
 1/6=1000,14=-1,18=10,39=1,42=10000,44=3/23(-8);
 2/15=1,29=1/2;
 6/7=2,8=2,9=2,10=2,19=2,28=1/1;
 7/9=1,25=1,30=1,44=-1/16;
 99/5=20,9=1/99;
 -----------
 4-CH3O-C6H3
 -----------
 Symbolic Z-matrix:
 Charge =  0 Multiplicity = 1
 C                    -0.72275  -1.02368   0. 
 C                     0.65705  -1.21928   0. 
 C                     1.37773  -0.03174   0. 
 C                     1.0264    1.25587   0. 
 C                    -0.37078   1.41992   0. 
 C                    -1.23184   0.30133   0. 
 H                    -1.38332  -1.88612   0. 
 H                     1.10856  -2.21229   0. 
 H                    -0.83907   2.40786   0. 
 N                     2.99287  -0.26376   0. 
 N                     4.07923  -0.01566   0.00001 
 O                    -2.56596   0.58144   0. 
 C                    -3.50076  -0.4931    0. 
 H                    -4.49028  -0.02583   0.00001 
 H                    -3.39162  -1.11757   0.90003 
 H                    -3.39163  -1.11756  -0.90002 
 
 IRC-IRC-IRC-IRC-IRC-IRC-IRC-IRC-IRC-IRC-IRC-IRC-IRC-IRC-IRC-IRC-IRC-IRC
 ------------------------------------------------------------------------
 INPUT DATA FOR L123
 ------------------------------------------------------------------------
 GENERAL PARAMETERS:
 Follow reaction path in both directions.
 Maximum points per path      =****
 Step size                    =   0.010 bohr
 Integration scheme           = HPC                                 
    Redo corrector integration= Yes                                 
    Max correction cycles     =1000
 Initial Hessian              = CalcFC
 Hessian eveluation           = All updating
    Hessian updating method   = Bofill                              
 ------------------------------------------------------------------------
 IRC-IRC-IRC-IRC-IRC-IRC-IRC-IRC-IRC-IRC-IRC-IRC-IRC-IRC-IRC-IRC-IRC-IRC
                          Input orientation:                          
 ---------------------------------------------------------------------
 Center     Atomic      Atomic             Coordinates (Angstroms)
 Number     Number       Type             X           Y           Z
 ---------------------------------------------------------------------
      1          6           0       -0.722750   -1.023680    0.000000
      2          6           0        0.657050   -1.219280    0.000000
      3          6           0        1.377730   -0.031740    0.000000
      4          6           0        1.026400    1.255870    0.000000
      5          6           0       -0.370780    1.419920    0.000000
      6          6           0       -1.231840    0.301330    0.000000
      7          1           0       -1.383320   -1.886120    0.000000
      8          1           0        1.108560   -2.212290    0.000000
      9          1           0       -0.839070    2.407860    0.000000
     10          7           0        2.992870   -0.263760    0.000000
     11          7           0        4.079230   -0.015660    0.000010
     12          8           0       -2.565960    0.581440    0.000000
     13          6           0       -3.500760   -0.493100    0.000000
     14          1           0       -4.490280   -0.025830    0.000010
     15          1           0       -3.391620   -1.117570    0.900030
     16          1           0       -3.391630   -1.117560   -0.900020
 ---------------------------------------------------------------------
                    Distance matrix (angstroms):
                    1          2          3          4          5
     1  C    0.000000
     2  C    1.393595   0.000000
     3  C    2.322921   1.389112   0.000000
     4  C    2.873304   2.502556   1.334681   0.000000
     5  C    2.468818   2.832280   2.272577   1.406778   0.000000
     6  C    1.419445   2.424904   2.630740   2.451692   1.411619
     7  H    1.086350   2.146575   3.325977   3.959653   3.457620
     8  H    2.183229   1.090839   2.197101   3.469133   3.921912
     9  H    3.433511   3.923585   3.296339   2.192501   1.093307
    10  N    3.792534   2.523702   1.631720   2.485212   3.761505
    11  N    4.906640   3.627674   2.701548   3.307047   4.675840
    12  O    2.444143   3.691935   3.991075   3.655121   2.349865
    13  C    2.828225   4.220749   4.900257   4.853254   3.668299
    14  H    3.897433   5.283874   5.868013   5.663613   4.365830
    15  H    2.818109   4.148750   4.973508   5.095309   4.046527
    16  H    2.818115   4.148758   4.973513   5.095311   4.046526
                    6          7          8          9         10
     6  C    0.000000
     7  H    2.192689   0.000000
     8  H    3.434495   2.513136   0.000000
     9  H    2.142834   4.328334   5.013886   0.000000
    10  N    4.262335   4.667236   2.710608   4.671329   0.000000
    11  N    5.320521   5.773913   3.694599   5.482985   1.114330
    12  O    1.363209   2.736328   4.615953   2.513555   5.622718
    13  C    2.403979   2.534572   4.919496   3.937025   6.497679
    14  H    3.274823   3.621309   6.010625   4.387959   7.486932
    15  H    2.736418   2.331092   4.718060   4.444572   6.503903
    16  H    2.736417   2.331100   4.718070   4.444568   6.503910
                   11         12         13         14         15
    11  N    0.000000
    12  O    6.671962   0.000000
    13  C    7.595011   1.424250   0.000000
    14  H    8.569516   2.017866   1.094299   0.000000
    15  H    7.605119   2.092463   1.100876   1.791364   0.000000
    16  H    7.605129   2.092455   1.100861   1.791357   1.800050
                   16
    16  H    0.000000
 Symmetry turned off by external request.
 Stoichiometry    C7H6N2O
 Framework group  C1[X(C7H6N2O)]
 Deg. of freedom    42
 Full point group                 C1      NOp   1
 Rotational constants (GHZ):      4.9412897      0.6966039      0.6129514
 Standard basis: Aug-CC-pVDZ (5D, 7F)
 Integral buffers will be    131072 words long.
 Raffenetti 2 integral format.
 Two-electron integral symmetry is turned off.
   284 basis functions,   496 primitive gaussians,   304 cartesian basis functions
    35 alpha electrons       35 beta electrons
       nuclear repulsion energy       455.0120677746 Hartrees.
 NAtoms=   16 NActive=   16 NUniq=   16 SFac= 1.00D+00 NAtFMM=   50 NAOKFM=F Big=F
 One-electron integrals computed using PRISM.
 NBasis=   284 RedAO= T  NBF=   284
 NBsUse=   284 1.00D-06 NBFU=   284
 Harris functional with IExCor=  402 diagonalized for initial guess.
 ExpMin= 2.97D-02 ExpMax= 1.17D+04 ExpMxC= 4.01D+02 IAcc=3 IRadAn=         0 AccDes= 0.00D+00
 HarFok:  IExCor=  402 AccDes= 0.00D+00 IRadAn=         0 IDoV= 1
 ScaDFX=  1.000000  1.000000  1.000000  1.000000
 FoFCou: FMM=F IPFlag=           0 FMFlag=      100000 FMFlg1=           0
         NFxFlg=           0 DoJE=T BraDBF=F KetDBF=T FulRan=T
         Omega=  0.000000  0.000000  1.000000  0.000000  0.000000 ICntrl=     500 IOpCl=  0
         NMat0=    1 NMatS0=    1 NMatT0=    0 NMatD0=    1 NMtDS0=    0 NMtDT0=    0
         I1Cent=           4 NGrid=           0.
 Symmetry not used in FoFCou.
 Requested convergence on RMS density matrix=1.00D-08 within 128 cycles.
 Requested convergence on MAX density matrix=1.00D-06.
 Requested convergence on             energy=1.00D-06.
 No special actions if energy rises.
 SCF Done:  E(RB3LYP) =  -454.976654841     A.U. after   18 cycles
             Convg  =    0.2789D-08             -V/T =  2.0064
 QCSCF skips out because SCF is already converged.
 Range of M.O.s used for correlation:     1   284
 NBasis=   284 NAE=    35 NBE=    35 NFC=     0 NFV=     0
 NROrb=    284 NOA=    35 NOB=    35 NVA=   249 NVB=   249

 **** Warning!!: The largest alpha MO coefficient is  0.99594545D+02

 Symmetrizing basis deriv contribution to polar:
 IMax=3 JMax=2 DiffMx= 0.00D+00
 G2DrvN: will do    17 centers at a time, making    1 passes doing MaxLOS=2.
 Calling FoFCou, ICntrl=  3107 FMM=F I1Cent=   0 AccDes= 0.00D+00.
 FoFDir/FoFCou used for L=0 through L=2.
 End of G2Drv Frequency-dependent properties file   721 does not exist.
 End of G2Drv Frequency-dependent properties file   722 does not exist.
          IDoAtm=1111111111111111
          Differentiating once with respect to nuclear coordinates.
          There are    51 degrees of freedom in the 1st order CPHF.  IDoFFX=5.
     45 vectors produced by pass  0 Test12= 1.71D-10 1.96D-07 XBig12= 8.18D-01 3.06D-01.
 AX will form    45 AO Fock derivatives at one time.
     45 vectors produced by pass  1 Test12= 1.71D-10 1.96D-07 XBig12= 4.24D-01 2.52D-01.
     45 vectors produced by pass  2 Test12= 1.71D-10 1.96D-07 XBig12= 5.43D-03 1.54D-02.
     45 vectors produced by pass  3 Test12= 1.71D-10 1.96D-07 XBig12= 6.01D-05 1.11D-03.
     42 vectors produced by pass  4 Test12= 1.71D-10 1.96D-07 XBig12= 2.02D-07 7.55D-05.
     16 vectors produced by pass  5 Test12= 1.71D-10 1.96D-07 XBig12= 3.33D-10 2.73D-06.
      3 vectors produced by pass  6 Test12= 1.71D-10 1.96D-07 XBig12= 2.32D-12 3.48D-07.
 Inverted reduced A of dimension   241 with in-core refinement.
 End of Minotr Frequency-dependent properties file   721 does not exist.
 End of Minotr Frequency-dependent properties file   722 does not exist.

 **********************************************************************

            Population analysis using the SCF density.

 **********************************************************************

 Alpha  occ. eigenvalues --  -19.18864 -14.50639 -14.48144 -10.26012 -10.25365
 Alpha  occ. eigenvalues --  -10.24966 -10.22208 -10.20480 -10.18989 -10.15823
 Alpha  occ. eigenvalues --   -1.16934  -1.07951  -0.87713  -0.78593  -0.76151
 Alpha  occ. eigenvalues --   -0.71970  -0.65650  -0.62020  -0.56762  -0.53739
 Alpha  occ. eigenvalues --   -0.51592  -0.51416  -0.50465  -0.48164  -0.47904
 Alpha  occ. eigenvalues --   -0.45742  -0.42597  -0.41540  -0.39138  -0.38733
 Alpha  occ. eigenvalues --   -0.34628  -0.34151  -0.25991  -0.23908  -0.20561
 Alpha virt. eigenvalues --   -0.09723  -0.08456  -0.02267  -0.01664  -0.00313
 Alpha virt. eigenvalues --    0.01169   0.01223   0.02143   0.02337   0.03066
 Alpha virt. eigenvalues --    0.03586   0.04653   0.05630   0.05650   0.06775
 Alpha virt. eigenvalues --    0.07339   0.07749   0.08870   0.09229   0.09521
 Alpha virt. eigenvalues --    0.09706   0.10423   0.10520   0.11147   0.11687
 Alpha virt. eigenvalues --    0.11943   0.12179   0.12696   0.13327   0.13387
 Alpha virt. eigenvalues --    0.13842   0.14074   0.14842   0.15090   0.16414
 Alpha virt. eigenvalues --    0.16585   0.17931   0.19046   0.19527   0.20120
 Alpha virt. eigenvalues --    0.20907   0.21489   0.22131   0.22783   0.23398
 Alpha virt. eigenvalues --    0.23640   0.24181   0.25112   0.25619   0.25642
 Alpha virt. eigenvalues --    0.26289   0.27208   0.27673   0.28261   0.28730
 Alpha virt. eigenvalues --    0.29222   0.29430   0.30593   0.31031   0.31592
 Alpha virt. eigenvalues --    0.31985   0.33257   0.34296   0.34775   0.35562
 Alpha virt. eigenvalues --    0.37202   0.37623   0.38237   0.38483   0.39811
 Alpha virt. eigenvalues --    0.40686   0.42157   0.43205   0.43617   0.44367
 Alpha virt. eigenvalues --    0.45315   0.45418   0.46377   0.47780   0.48608
 Alpha virt. eigenvalues --    0.50273   0.50992   0.51901   0.52500   0.52978
 Alpha virt. eigenvalues --    0.53436   0.53631   0.54643   0.55216   0.56649
 Alpha virt. eigenvalues --    0.56654   0.58018   0.58989   0.59326   0.59684
 Alpha virt. eigenvalues --    0.60356   0.61830   0.62098   0.62574   0.63660
 Alpha virt. eigenvalues --    0.63966   0.64690   0.64875   0.66286   0.66459
 Alpha virt. eigenvalues --    0.67136   0.69204   0.69710   0.71108   0.71492
 Alpha virt. eigenvalues --    0.72590   0.72729   0.72879   0.73380   0.74716
 Alpha virt. eigenvalues --    0.75168   0.76006   0.76985   0.77267   0.78576
 Alpha virt. eigenvalues --    0.79811   0.80376   0.82304   0.82438   0.83777
 Alpha virt. eigenvalues --    0.84410   0.85022   0.86147   0.86423   0.87387
 Alpha virt. eigenvalues --    0.90298   0.92445   0.93309   0.95201   0.95751
 Alpha virt. eigenvalues --    0.97402   0.99644   1.02218   1.03880   1.04157
 Alpha virt. eigenvalues --    1.08137   1.10164   1.11812   1.14835   1.15047
 Alpha virt. eigenvalues --    1.15613   1.21382   1.21793   1.22818   1.24722
 Alpha virt. eigenvalues --    1.27601   1.27819   1.28891   1.30608   1.32424
 Alpha virt. eigenvalues --    1.33959   1.35217   1.37770   1.39587   1.41000
 Alpha virt. eigenvalues --    1.41179   1.42825   1.43917   1.44976   1.46191
 Alpha virt. eigenvalues --    1.48253   1.49264   1.49480   1.51214   1.52814
 Alpha virt. eigenvalues --    1.55287   1.56805   1.57166   1.58105   1.60190
 Alpha virt. eigenvalues --    1.62125   1.62149   1.64455   1.65108   1.67870
 Alpha virt. eigenvalues --    1.68045   1.68723   1.71366   1.71837   1.72983
 Alpha virt. eigenvalues --    1.75509   1.78208   1.81168   1.82954   1.86354
 Alpha virt. eigenvalues --    1.87955   1.88305   1.91590   1.92767   1.94962
 Alpha virt. eigenvalues --    1.95384   1.96620   1.97774   2.00140   2.00490
 Alpha virt. eigenvalues --    2.01291   2.02448   2.02787   2.05171   2.06986
 Alpha virt. eigenvalues --    2.07931   2.10556   2.11378   2.13678   2.16842
 Alpha virt. eigenvalues --    2.20306   2.23549   2.24121   2.25035   2.27987
 Alpha virt. eigenvalues --    2.30864   2.31707   2.35319   2.36163   2.37313
 Alpha virt. eigenvalues --    2.42004   2.42884   2.49265   2.50706   2.56572
 Alpha virt. eigenvalues --    2.58786   2.58886   2.60695   2.66937   2.69262
 Alpha virt. eigenvalues --    2.74653   2.77810   2.83922   2.84086   2.88189
 Alpha virt. eigenvalues --    2.92178   3.00180   3.05888   3.10937   3.13165
 Alpha virt. eigenvalues --    3.18225   3.38015   3.39679   3.40150   3.49662
 Alpha virt. eigenvalues --    3.50071   3.68125   3.77559   4.03351
          Condensed to atoms (all electrons):
              1          2          3          4          5          6
     1  C   15.850128  -4.197963   0.735594  -1.861837   0.090473  -4.818741
     2  C   -4.197963  17.647736  -4.651677  -0.866582  -2.433413   1.572146
     3  C    0.735594  -4.651677  10.944660  -0.485949   0.479161  -2.521253
     4  C   -1.861837  -0.866582  -0.485949  11.136009  -0.824759   0.557227
     5  C    0.090473  -2.433413   0.479161  -0.824759  10.930632  -1.932467
     6  C   -4.818741   1.572146  -2.521253   0.557227  -1.932467  12.015137
     7  H   -2.708121   0.280090  -0.568217   0.046508   0.230303   1.285514
     8  H    0.904733  -2.339853   1.298429  -0.032917   0.169011  -0.650836
     9  H   -0.022465   0.129635  -0.160028  -0.086831  -1.344657   0.684420
    10  N   -0.189293   0.260750   0.055158  -0.183502  -0.040077   0.062441
    11  N   -0.053537  -0.205821  -0.244582   0.205232  -0.099495   0.083962
    12  O    0.755288  -0.233838   0.141102  -0.090386   0.073459  -0.947968
    13  C    0.018220  -0.012564  -0.001199   0.021286  -0.061914  -0.067739
    14  H   -0.184614  -0.029491   0.014958  -0.005339  -0.022015   0.335109
    15  H    0.078828   0.052190  -0.011203   0.005430  -0.016276  -0.113385
    16  H    0.078838   0.052198  -0.011204   0.005430  -0.016282  -0.113383
              7          8          9         10         11         12
     1  C   -2.708121   0.904733  -0.022465  -0.189293  -0.053537   0.755288
     2  C    0.280090  -2.339853   0.129635   0.260750  -0.205821  -0.233838
     3  C   -0.568217   1.298429  -0.160028   0.055158  -0.244582   0.141102
     4  C    0.046508  -0.032917  -0.086831  -0.183502   0.205232  -0.090386
     5  C    0.230303   0.169011  -1.344657  -0.040077  -0.099495   0.073459
     6  C    1.285514  -0.650836   0.684420   0.062441   0.083962  -0.947968
     7  H    4.269844  -0.257973  -0.024205  -0.023722  -0.008015  -0.186595
     8  H   -0.257973   2.763609   0.010648  -0.100269  -0.011281   0.006326
     9  H   -0.024205   0.010648   2.695482   0.001962   0.007976  -0.151793
    10  N   -0.023722  -0.100269   0.001962   8.191878  -1.459322  -0.005251
    11  N   -0.008015  -0.011281   0.007976  -1.459322   9.475165  -0.001027
    12  O   -0.186595   0.006326  -0.151793  -0.005251  -0.001027   9.314206
    13  C    0.000491   0.009305   0.016852   0.001537   0.000737   0.156999
    14  H    0.042992  -0.000845  -0.008120  -0.000351  -0.000097  -0.412698
    15  H   -0.085831   0.001395   0.004064   0.000793   0.000315   0.106313
    16  H   -0.085836   0.001395   0.004064   0.000793   0.000315   0.106317
             13         14         15         16
     1  C    0.018220  -0.184614   0.078828   0.078838
     2  C   -0.012564  -0.029491   0.052190   0.052198
     3  C   -0.001199   0.014958  -0.011203  -0.011204
     4  C    0.021286  -0.005339   0.005430   0.005430
     5  C   -0.061914  -0.022015  -0.016276  -0.016282
     6  C   -0.067739   0.335109  -0.113385  -0.113383
     7  H    0.000491   0.042992  -0.085831  -0.085836
     8  H    0.009305  -0.000845   0.001395   0.001395
     9  H    0.016852  -0.008120   0.004064   0.004064
    10  N    0.001537  -0.000351   0.000793   0.000793
    11  N    0.000737  -0.000097   0.000315   0.000315
    12  O    0.156999  -0.412698   0.106313   0.106317
    13  C    3.999081   0.213056   0.242019   0.241975
    14  H    0.213056   2.709636  -0.548602  -0.548636
    15  H    0.242019  -0.548602   1.606306  -0.135582
    16  H    0.241975  -0.548636  -0.135582   1.606412
 Mulliken atomic charges:
              1
     1  C    1.524467
     2  C    0.976459
     3  C    0.986249
     4  C   -1.539019
     5  C    0.818315
     6  C    0.569815
     7  H   -1.207226
     8  H   -0.770877
     9  H   -0.757004
    10  N    0.426474
    11  N   -0.690525
    12  O   -0.630455
    13  C    1.221858
    14  H   -0.554944
    15  H   -0.186773
    16  H   -0.186815
 Sum of Mulliken atomic charges =   0.00000
 Mulliken charges with hydrogens summed into heavy atoms:
              1
     1  C    0.317241
     2  C    0.205582
     3  C    0.986249
     4  C   -1.539019
     5  C    0.061311
     6  C    0.569815
    10  N    0.426474
    11  N   -0.690525
    12  O   -0.630455
    13  C    0.293326
 Sum of Mulliken charges with hydrogens summed into heavy atoms =   0.00000
 APT atomic charges:
              1
     1  C    0.753131
     2  C    0.401774
     3  C   -0.075006
     4  C    0.057374
     5  C    0.498846
     6  C   -0.093726
     7  H   -0.637555
     8  H   -0.265056
     9  H   -0.276873
    10  N   -1.538195
    11  N    1.101602
    12  O   -0.164231
    13  C   -0.329440
    14  H   -0.364540
    15  H    0.465958
    16  H    0.465937
 Sum of APT charges=   0.00000
 APT Atomic charges with hydrogens summed into heavy atoms:
              1
     1  C    0.115576
     2  C    0.136718
     3  C   -0.075006
     4  C    0.057374
     5  C    0.221973
     6  C   -0.093726
     7  H    0.000000
     8  H    0.000000
     9  H    0.000000
    10  N   -1.538195
    11  N    1.101602
    12  O   -0.164231
    13  C    0.237915
    14  H    0.000000
    15  H    0.000000
    16  H    0.000000
 Sum of APT charges=   0.00000
 Electronic spatial extent (au):  <R**2>=           1717.8277
 Charge=              0.0000 electrons
 Dipole moment (field-independent basis, Debye):
    X=             -0.8854    Y=             -4.1751    Z=              0.0000  Tot=              4.2680
 Quadrupole moment (field-independent basis, Debye-Ang):
   XX=            -48.2628   YY=            -59.4939   ZZ=            -60.0477
   XY=             -1.6642   XZ=              0.0000   YZ=              0.0000
 Traceless Quadrupole moment (field-independent basis, Debye-Ang):
   XX=              7.6720   YY=             -3.5591   ZZ=             -4.1129
   XY=             -1.6642   XZ=              0.0000   YZ=              0.0000
 Octapole moment (field-independent basis, Debye-Ang**2):
  XXX=            -28.6014  YYY=            -15.6827  ZZZ=             -0.0002  XYY=             -7.4520
  XXY=            -21.4377  XXZ=             -0.0002  XZZ=             -0.7723  YZZ=             -1.6816
  YYZ=             -0.0001  XYZ=             -0.0001
 Hexadecapole moment (field-independent basis, Debye-Ang**3):
 XXXX=          -1733.0008 YYYY=           -361.5829 ZZZZ=            -74.6891 XXXY=             -3.4236
 XXXZ=             -0.0007 YYYX=            -34.1454 YYYZ=              0.0001 ZZZX=             -0.0003
 ZZZY=              0.0001 XXYY=           -377.0348 XXZZ=           -317.8250 YYZZ=            -79.2095
 XXYZ=              0.0002 YYXZ=             -0.0001 ZZXY=             -2.9407
 N-N= 4.550120677746D+02 E-N=-1.968847386307D+03  KE= 4.520943999305D+02
  Exact polarizability:   0.000   0.000   0.000   0.000   0.000   0.000
 Approx polarizability: 302.109 -26.583 202.074   0.000   0.000  98.045
 Calling FoFJK, ICntrl=    100147 FMM=F ISym2X=0 I1Cent= 0 IOpClX= 0 NMat=1 NMatS=1 NMatT=0.
 -------------------------------------------------------------------
 Center     Atomic                   Forces (Hartrees/Bohr)
 Number     Number              X              Y              Z
 -------------------------------------------------------------------
      1        6          -0.000000657   -0.000006222    0.000000015
      2        6          -0.000003982   -0.000004125   -0.000000149
      3        6           0.000005294    0.000010576    0.000000042
      4        6           0.000001034   -0.000017060   -0.000000156
      5        6           0.000000632    0.000006880    0.000000101
      6        6          -0.000002418    0.000005302   -0.000000031
      7        1           0.000000848    0.000002079    0.000000006
      8        1          -0.000001069    0.000003715    0.000000001
      9        1           0.000000737   -0.000001588    0.000000004
     10        7          -0.000021311   -0.000012004    0.000000237
     11        7           0.000020295    0.000006948   -0.000000115
     12        8           0.000000470   -0.000001975   -0.000000162
     13        6          -0.000000046    0.000005591    0.000007916
     14        1           0.000000708    0.000001266   -0.000000220
     15        1          -0.000000757    0.000002761   -0.000003070
     16        1           0.000000223   -0.000002141   -0.000004418
 -------------------------------------------------------------------
 Cartesian Forces:  Max     0.000021311 RMS     0.000006140
 IRC-IRC-IRC-IRC-IRC-IRC-IRC-IRC-IRC-IRC-IRC-IRC-IRC-IRC-IRC-IRC-IRC-IRC
          ******** Start new reaction path calculation ********
 Supplied step size of   0.0100 bohr.
    Integration on MW PES will use step size of   0.0357 sqrt(amu)*bohr.
 Point Number:   0          Path Number:   1
 Calculating another point on the path.
 IRC-IRC-IRC-IRC-IRC-IRC-IRC-IRC-IRC-IRC-IRC-IRC-IRC-IRC-IRC-IRC-IRC-IRC
                          Input orientation:                          
 ---------------------------------------------------------------------
 Center     Atomic      Atomic             Coordinates (Angstroms)
 Number     Number       Type             X           Y           Z
 ---------------------------------------------------------------------
      1          6           0       -0.814266   -1.053067   -0.000001
      2          6           0        0.565338   -1.248617   -0.000001
      3          6           0        1.288268   -0.061651   -0.000001
      4          6           0        0.935351    1.227169   -0.000001
      5          6           0       -0.462089    1.390214   -0.000001
      6          6           0       -1.323485    0.272055   -0.000001
      7          1           0       -1.474833   -1.915514   -0.000001
      8          1           0        1.016146   -2.241994   -0.000001
      9          1           0       -0.930358    2.378204   -0.000001
     10          7           0        2.898006   -0.290849   -0.000001
     11          7           0        3.985396   -0.045943    0.000009
     12          8           0       -2.657562    0.552112   -0.000001
     13          6           0       -3.592606   -0.522338   -0.000001
     14          1           0       -4.582024   -0.054864    0.000009
     15          1           0       -3.483561   -1.146786    0.900035
     16          1           0       -3.483571   -1.146776   -0.900028
 ---------------------------------------------------------------------
                    Distance matrix (angstroms):
                    1          2          3          4          5
     1  C    0.000000
     2  C    1.393394   0.000000
     3  C    2.324555   1.389790   0.000000
     4  C    2.874132   2.503282   1.336266   0.000000
     5  C    2.468532   2.831789   2.274129   1.406920   0.000000
     6  C    1.419596   2.424890   2.632986   2.452464   1.411482
     7  H    1.086353   2.146403   3.327392   3.960485   3.457382
     8  H    2.182649   1.090884   2.197259   3.470104   3.921494
     9  H    3.433234   3.923128   3.297756   2.192203   1.093344
    10  N    3.789715   2.521638   1.625972   2.481208   3.757155
    11  N    4.904187   3.625358   2.697173   3.305085   4.673614
    12  O    2.444246   3.691843   3.993280   3.655780   2.350003
    13  C    2.828577   4.220897   4.902567   4.854191   3.668513
    14  H    3.897744   5.283973   5.870296   5.664365   4.366018
    15  H    2.818508   4.148978   4.975735   5.096323   4.046693
    16  H    2.818514   4.148985   4.975741   5.096325   4.046692
                    6          7          8          9         10
     6  C    0.000000
     7  H    2.192799   0.000000
     8  H    3.434285   2.512283   0.000000
     9  H    2.142525   4.328102   5.013493   0.000000
    10  N    4.258854   4.664896   2.710786   4.666928   0.000000
    11  N    5.318396   5.771429   3.693113   5.480979   1.114629
    12  O    1.363156   2.736426   4.615535   2.513532   5.619156
    13  C    2.404157   2.534937   4.919127   3.937094   6.494738
    14  H    3.274898   3.621693   6.010245   4.387993   7.483751
    15  H    2.736623   2.331523   4.717723   4.444599   6.501314
    16  H    2.736622   2.331531   4.717733   4.444595   6.501321
                   11         12         13         14         15
    11  N    0.000000
    12  O    6.669825   0.000000
    13  C    7.592961   1.424342   0.000000
    14  H    8.567424   2.017913   1.094294   0.000000
    15  H    7.603106   2.092509   1.100859   1.791357   0.000000
    16  H    7.603116   2.092501   1.100844   1.791350   1.800063
                   16
    16  H    0.000000
 Symmetry turned off by external request.
 Stoichiometry    C7H6N2O
 Framework group  C1[X(C7H6N2O)]
 Deg. of freedom    42
 Full point group                 C1      NOp   1
 Rotational constants (GHZ):      4.9416947      0.6970048      0.6132680
 Standard basis: Aug-CC-pVDZ (5D, 7F)
 Integral buffers will be    131072 words long.
 Raffenetti 2 integral format.
 Two-electron integral symmetry is turned off.
   284 basis functions,   496 primitive gaussians,   304 cartesian basis functions
    35 alpha electrons       35 beta electrons
       nuclear repulsion energy       455.0704498338 Hartrees.
 NAtoms=   16 NActive=   16 NUniq=   16 SFac= 1.00D+00 NAtFMM=   50 NAOKFM=F Big=F
 One-electron integrals computed using PRISM.
 NBasis=   284 RedAO= T  NBF=   284
 NBsUse=   284 1.00D-06 NBFU=   284
 Initial guess read from the read-write file.
 B after Tr=     0.000000    0.000000    0.000000
         Rot=    1.000000    0.000000    0.000000    0.000000 Ang=   0.00 deg.
 Harris functional with IExCor=  402 diagonalized for initial guess.
 ExpMin= 2.97D-02 ExpMax= 1.17D+04 ExpMxC= 4.01D+02 IAcc=3 IRadAn=         0 AccDes= 0.00D+00
 HarFok:  IExCor=  402 AccDes= 0.00D+00 IRadAn=         0 IDoV= 1
 ScaDFX=  1.000000  1.000000  1.000000  1.000000
 FoFCou: FMM=F IPFlag=           0 FMFlag=      100000 FMFlg1=           0
         NFxFlg=           0 DoJE=T BraDBF=F KetDBF=T FulRan=T
         Omega=  0.000000  0.000000  1.000000  0.000000  0.000000 ICntrl=     500 IOpCl=  0
         NMat0=    1 NMatS0=    1 NMatT0=    0 NMatD0=    1 NMtDS0=    0 NMtDT0=    0
         I1Cent=           4 NGrid=           0.
 Symmetry not used in FoFCou.
 Requested convergence on RMS density matrix=1.00D-08 within 128 cycles.
 Requested convergence on MAX density matrix=1.00D-06.
 Requested convergence on             energy=1.00D-06.
 No special actions if energy rises.
 SCF Done:  E(RB3LYP) =  -454.976659818     A.U. after   12 cycles
             Convg  =    0.4444D-08             -V/T =  2.0064
 QCSCF skips out because SCF is already converged.
 Range of M.O.s used for correlation:     1   284
 NBasis=   284 NAE=    35 NBE=    35 NFC=     0 NFV=     0
 NROrb=    284 NOA=    35 NOB=    35 NVA=   249 NVB=   249

 **** Warning!!: The largest alpha MO coefficient is  0.99611080D+02

 Symmetrizing basis deriv contribution to polar:
 IMax=3 JMax=2 DiffMx= 0.00D+00
 Calling FoFJK, ICntrl=      2147 FMM=F ISym2X=0 I1Cent= 0 IOpClX= 0 NMat=1 NMatS=1 NMatT=0.
 -------------------------------------------------------------------
 Center     Atomic                   Forces (Hartrees/Bohr)
 Number     Number              X              Y              Z
 -------------------------------------------------------------------
      1        6           0.000049676   -0.000024348    0.000000015
      2        6           0.000070555   -0.000038991   -0.000000149
      3        6           0.000463893   -0.000122656    0.000000041
      4        6           0.000071337    0.000050699   -0.000000156
      5        6           0.000128385   -0.000076210    0.000000101
      6        6           0.000062615    0.000013949   -0.000000031
      7        1           0.000007799    0.000007374    0.000000006
      8        1          -0.000020406    0.000008385    0.000000001
      9        1           0.000011507   -0.000013914    0.000000001
     10        7          -0.000588859    0.000435160    0.000000246
     11        7          -0.000399360   -0.000230531   -0.000000122
     12        8           0.000091172   -0.000030151   -0.000000163
     13        6           0.000047535    0.000014794    0.000007916
     14        1           0.000030685    0.000013561   -0.000000220
     15        1          -0.000013760   -0.000001114    0.000000562
     16        1          -0.000012772   -0.000006007   -0.000008048
 -------------------------------------------------------------------
 Cartesian Forces:  Max     0.000588859 RMS     0.000146976
 IRC-IRC-IRC-IRC-IRC-IRC-IRC-IRC-IRC-IRC-IRC-IRC-IRC-IRC-IRC-IRC-IRC-IRC
 Pt  1 Step number   1 out of a maximum of1000
 CORRECTOR INTEGRATION CONVERGENCE:
   Recorrection delta-x convergence threshold:    0.010000
   Delta-x Convergence Met
 Point Number:   1          Path Number:   1
   CHANGE IN THE REACTION COORDINATE =    0.03570
   NET REACTION COORDINATE UP TO THIS POINT =    0.03570
  # OF POINTS ALONG THE PATH =   1
  # OF STEPS =   1

 Calculating another point on the path.
 IRC-IRC-IRC-IRC-IRC-IRC-IRC-IRC-IRC-IRC-IRC-IRC-IRC-IRC-IRC-IRC-IRC-IRC
                          Input orientation:                          
 ---------------------------------------------------------------------
 Center     Atomic      Atomic             Coordinates (Angstroms)
 Number     Number       Type             X           Y           Z
 ---------------------------------------------------------------------
      1          6           0       -0.813844   -1.053169   -0.000001
      2          6           0        0.565596   -1.248771   -0.000002
      3          6           0        1.290814   -0.062411   -0.000001
      4          6           0        0.936036    1.227518   -0.000002
      5          6           0       -0.461481    1.389772   -0.000001
      6          6           0       -1.323144    0.272054   -0.000001
      7          1           0       -1.474490   -1.915535   -0.000001
      8          1           0        1.015501   -2.242554   -0.000002
      9          1           0       -0.929699    2.377802   -0.000001
     10          7           0        2.895090   -0.288741    0.000000
     11          7           0        3.983502   -0.047037    0.000008
     12          8           0       -2.657130    0.551996   -0.000001
     13          6           0       -3.592445   -0.522249    0.000000
     14          1           0       -4.581513   -0.054163    0.000005
     15          1           0       -3.483862   -1.146714    0.900068
     16          1           0       -3.483868   -1.146710   -0.900071
 ---------------------------------------------------------------------
                    Distance matrix (angstroms):
                    1          2          3          4          5
     1  C    0.000000
     2  C    1.393240   0.000000
     3  C    2.326197   1.390464   0.000000
     4  C    2.874650   2.503843   1.337828   0.000000
     5  C    2.468223   2.831395   2.275825   1.406905   0.000000
     6  C    1.419719   2.424922   2.635269   2.452917   1.411296
     7  H    1.086337   2.146282   3.328810   3.960987   3.457057
     8  H    2.182004   1.090880   2.197458   3.470982   3.921132
     9  H    3.432927   3.922746   3.299291   2.191830   1.093357
    10  N    3.786891   2.519563   1.620162   2.477284   3.752863
    11  N    4.901718   3.623016   2.692732   3.303263   4.671435
    12  O    2.444230   3.691711   3.995468   3.656114   2.350052
    13  C    2.828868   4.221035   4.904862   4.854773   3.668618
    14  H    3.897864   5.283922   5.872334   5.664455   4.365732
    15  H    2.819197   4.149537   4.978290   5.097313   4.047057
    16  H    2.819203   4.149543   4.978295   5.097316   4.047060
                    6          7          8          9         10
     6  C    0.000000
     7  H    2.192818   0.000000
     8  H    3.434023   2.511374   0.000000
     9  H    2.142189   4.327764   5.013132   0.000000
    10  N    4.255348   4.662584   2.711132   4.662560   0.000000
    11  N    5.316231   5.768966   3.691792   5.478996   1.114927
    12  O    1.363044   2.736302   4.614947   2.513481   5.615513
    13  C    2.404297   2.535148   4.918599   3.937069   6.491735
    14  H    3.274659   3.621920   6.009628   4.387505   7.480282
    15  H    2.737102   2.332121   4.717548   4.444782   6.499021
    16  H    2.737106   2.332128   4.717555   4.444782   6.499027
                   11         12         13         14         15
    11  N    0.000000
    12  O    6.667596   0.000000
    13  C    7.590837   1.424365   0.000000
    14  H    8.565019   2.017592   1.094241   0.000000
    15  H    7.601377   2.092660   1.100849   1.791262   0.000000
    16  H    7.601385   2.092660   1.100849   1.791262   1.800140
                   16
    16  H    0.000000
 Symmetry turned off by external request.
 Stoichiometry    C7H6N2O
 Framework group  C1[X(C7H6N2O)]
 Deg. of freedom    42
 Full point group                 C1      NOp   1
 Rotational constants (GHZ):      4.9423554      0.6974197      0.6135996
 Standard basis: Aug-CC-pVDZ (5D, 7F)
 Integral buffers will be    131072 words long.
 Raffenetti 2 integral format.
 Two-electron integral symmetry is turned off.
   284 basis functions,   496 primitive gaussians,   304 cartesian basis functions
    35 alpha electrons       35 beta electrons
       nuclear repulsion energy       455.1374959536 Hartrees.
 NAtoms=   16 NActive=   16 NUniq=   16 SFac= 1.00D+00 NAtFMM=   50 NAOKFM=F Big=F
 One-electron integrals computed using PRISM.
 NBasis=   284 RedAO= T  NBF=   284
 NBsUse=   284 1.00D-06 NBFU=   284
 Initial guess read from the read-write file.
 B after Tr=     0.000000    0.000000    0.000000
         Rot=    1.000000    0.000000    0.000000    0.000000 Ang=   0.00 deg.
 Harris functional with IExCor=  402 diagonalized for initial guess.
 ExpMin= 2.97D-02 ExpMax= 1.17D+04 ExpMxC= 4.01D+02 IAcc=3 IRadAn=         0 AccDes= 0.00D+00
 HarFok:  IExCor=  402 AccDes= 0.00D+00 IRadAn=         0 IDoV= 1
 ScaDFX=  1.000000  1.000000  1.000000  1.000000
 FoFCou: FMM=F IPFlag=           0 FMFlag=      100000 FMFlg1=           0
         NFxFlg=           0 DoJE=T BraDBF=F KetDBF=T FulRan=T
         Omega=  0.000000  0.000000  1.000000  0.000000  0.000000 ICntrl=     500 IOpCl=  0
         NMat0=    1 NMatS0=    1 NMatT0=    0 NMatD0=    1 NMtDS0=    0 NMtDT0=    0
         I1Cent=           4 NGrid=           0.
 Symmetry not used in FoFCou.
 Requested convergence on RMS density matrix=1.00D-08 within 128 cycles.
 Requested convergence on MAX density matrix=1.00D-06.
 Requested convergence on             energy=1.00D-06.
 No special actions if energy rises.
 SCF Done:  E(RB3LYP) =  -454.976674729     A.U. after   11 cycles
             Convg  =    0.7254D-08             -V/T =  2.0064
 QCSCF skips out because SCF is already converged.
 Range of M.O.s used for correlation:     1   284
 NBasis=   284 NAE=    35 NBE=    35 NFC=     0 NFV=     0
 NROrb=    284 NOA=    35 NOB=    35 NVA=   249 NVB=   249

 **** Warning!!: The largest alpha MO coefficient is  0.99558458D+02

 Symmetrizing basis deriv contribution to polar:
 IMax=3 JMax=2 DiffMx= 0.00D+00
 Calling FoFJK, ICntrl=      2147 FMM=F ISym2X=0 I1Cent= 0 IOpClX= 0 NMat=1 NMatS=1 NMatT=0.
 -------------------------------------------------------------------
 Center     Atomic                   Forces (Hartrees/Bohr)
 Number     Number              X              Y              Z
 -------------------------------------------------------------------
      1        6           0.000183052   -0.000057851   -0.000000019
      2        6           0.000044647   -0.000047581   -0.000000021
      3        6           0.000878330   -0.000272100   -0.000000013
      4        6           0.000352424    0.000202014   -0.000000018
      5        6           0.000202966   -0.000169422   -0.000000007
      6        6           0.000106683   -0.000020857    0.000000008
      7        1           0.000010143   -0.000011030   -0.000000002
      8        1          -0.000004526   -0.000024521   -0.000000003
      9        1           0.000017166   -0.000006261    0.000000003
     10        7          -0.001202164    0.000875755    0.000000125
     11        7          -0.000792189   -0.000446281   -0.000000078
     12        8           0.000179129   -0.000044096    0.000000040
     13        6           0.000019387    0.000008702   -0.000000003
     14        1          -0.000014371    0.000002879   -0.000000018
     15        1           0.000009654    0.000005340   -0.000003307
     16        1           0.000009668    0.000005309    0.000003314
 -------------------------------------------------------------------
 Cartesian Forces:  Max     0.001202164 RMS     0.000296098
 IRC-IRC-IRC-IRC-IRC-IRC-IRC-IRC-IRC-IRC-IRC-IRC-IRC-IRC-IRC-IRC-IRC-IRC
 Pt  2 Step number   1 out of a maximum of1000
 CORRECTOR INTEGRATION CONVERGENCE:
   Recorrection delta-x convergence threshold:    0.010000
   Delta-x Convergence Met
 Point Number:   2          Path Number:   1
   CHANGE IN THE REACTION COORDINATE =    0.03569
   NET REACTION COORDINATE UP TO THIS POINT =    0.07138
  # OF POINTS ALONG THE PATH =   2
  # OF STEPS =   1

 Calculating another point on the path.
 IRC-IRC-IRC-IRC-IRC-IRC-IRC-IRC-IRC-IRC-IRC-IRC-IRC-IRC-IRC-IRC-IRC-IRC
                          Input orientation:                          
 ---------------------------------------------------------------------
 Center     Atomic      Atomic             Coordinates (Angstroms)
 Number     Number       Type             X           Y           Z
 ---------------------------------------------------------------------
      1          6           0       -0.813408   -1.053347   -0.000001
      2          6           0        0.565797   -1.248919   -0.000002
      3          6           0        1.293285   -0.063130   -0.000001
      4          6           0        0.936980    1.228074   -0.000002
      5          6           0       -0.460848    1.389290   -0.000001
      6          6           0       -1.322841    0.272005   -0.000001
      7          1           0       -1.474059   -1.915727   -0.000001
      8          1           0        1.015053   -2.243061   -0.000002
      9          1           0       -0.929042    2.377381   -0.000001
     10          7           0        2.892177   -0.286640    0.000000
     11          7           0        3.981601   -0.048121    0.000008
     12          8           0       -2.656786    0.551920   -0.000001
     13          6           0       -3.592357   -0.522238    0.000000
     14          1           0       -4.581402   -0.054068    0.000004
     15          1           0       -3.483742   -1.146663    0.900062
     16          1           0       -3.483747   -1.146660   -0.900064
 ---------------------------------------------------------------------
                    Distance matrix (angstroms):
                    1          2          3          4          5
     1  C    0.000000
     2  C    1.393002   0.000000
     3  C    2.327807   1.391162   0.000000
     4  C    2.875541   2.504649   1.339463   0.000000
     5  C    2.467949   2.830926   2.277390   1.407094   0.000000
     6  C    1.419887   2.424905   2.637505   2.453744   1.411155
     7  H    1.086351   2.146077   3.330211   3.961892   3.456839
     8  H    2.181442   1.090940   2.197615   3.472012   3.920747
     9  H    3.432676   3.922319   3.300731   2.191562   1.093402
    10  N    3.784072   2.517543   1.614439   2.473288   3.748535
    11  N    4.899243   3.620722   2.688357   3.301270   4.669207
    12  O    2.444366   3.691620   3.997668   3.656820   2.350177
    13  C    2.829247   4.221174   4.907166   4.855768   3.668827
    14  H    3.898248   5.284063   5.874694   5.665370   4.366034
    15  H    2.819487   4.149619   4.980376   5.098261   4.047105
    16  H    2.819492   4.149624   4.980381   5.098265   4.047108
                    6          7          8          9         10
     6  C    0.000000
     7  H    2.192951   0.000000
     8  H    3.433847   2.510543   0.000000
     9  H    2.141889   4.327565   5.012782   0.000000
    10  N    4.251878   4.660251   2.711305   4.658188   0.000000
    11  N    5.314093   5.766470   3.690280   5.476994   1.115229
    12  O    1.362997   2.736444   4.614577   2.513445   5.611967
    13  C    2.404480   2.535547   4.918278   3.937136   6.488813
    14  H    3.274834   3.622341   6.009326   4.387673   7.477196
    15  H    2.737193   2.332466   4.717134   4.444715   6.496314
    16  H    2.737196   2.332472   4.717140   4.444716   6.496319
                   11         12         13         14         15
    11  N    0.000000
    12  O    6.665450   0.000000
    13  C    7.588783   1.424468   0.000000
    14  H    8.563004   2.017763   1.094254   0.000000
    15  H    7.599226   2.092643   1.100825   1.791291   0.000000
    16  H    7.599233   2.092643   1.100825   1.791292   1.800126
                   16
    16  H    0.000000
 Symmetry turned off by external request.
 Stoichiometry    C7H6N2O
 Framework group  C1[X(C7H6N2O)]
 Deg. of freedom    42
 Full point group                 C1      NOp   1
 Rotational constants (GHZ):      4.9426061      0.6978211      0.6139141
 Standard basis: Aug-CC-pVDZ (5D, 7F)
 Integral buffers will be    131072 words long.
 Raffenetti 2 integral format.
 Two-electron integral symmetry is turned off.
   284 basis functions,   496 primitive gaussians,   304 cartesian basis functions
    35 alpha electrons       35 beta electrons
       nuclear repulsion energy       455.1946288960 Hartrees.
 NAtoms=   16 NActive=   16 NUniq=   16 SFac= 1.00D+00 NAtFMM=   50 NAOKFM=F Big=F
 One-electron integrals computed using PRISM.
 NBasis=   284 RedAO= T  NBF=   284
 NBsUse=   284 1.00D-06 NBFU=   284
 Initial guess read from the read-write file.
 B after Tr=     0.000000    0.000000    0.000000
         Rot=    1.000000    0.000000    0.000000    0.000000 Ang=   0.00 deg.
 Harris functional with IExCor=  402 diagonalized for initial guess.
 ExpMin= 2.97D-02 ExpMax= 1.17D+04 ExpMxC= 4.01D+02 IAcc=3 IRadAn=         0 AccDes= 0.00D+00
 HarFok:  IExCor=  402 AccDes= 0.00D+00 IRadAn=         0 IDoV= 1
 ScaDFX=  1.000000  1.000000  1.000000  1.000000
 FoFCou: FMM=F IPFlag=           0 FMFlag=      100000 FMFlg1=           0
         NFxFlg=           0 DoJE=T BraDBF=F KetDBF=T FulRan=T
         Omega=  0.000000  0.000000  1.000000  0.000000  0.000000 ICntrl=     500 IOpCl=  0
         NMat0=    1 NMatS0=    1 NMatT0=    0 NMatD0=    1 NMtDS0=    0 NMtDT0=    0
         I1Cent=           4 NGrid=           0.
 Symmetry not used in FoFCou.
 Requested convergence on RMS density matrix=1.00D-08 within 128 cycles.
 Requested convergence on MAX density matrix=1.00D-06.
 Requested convergence on             energy=1.00D-06.
 No special actions if energy rises.
 SCF Done:  E(RB3LYP) =  -454.976699852     A.U. after   12 cycles
             Convg  =    0.7554D-08             -V/T =  2.0064
 QCSCF skips out because SCF is already converged.
 Range of M.O.s used for correlation:     1   284
 NBasis=   284 NAE=    35 NBE=    35 NFC=     0 NFV=     0
 NROrb=    284 NOA=    35 NOB=    35 NVA=   249 NVB=   249

 **** Warning!!: The largest alpha MO coefficient is  0.99529705D+02

 Symmetrizing basis deriv contribution to polar:
 IMax=3 JMax=2 DiffMx= 0.00D+00
 Calling FoFJK, ICntrl=      2147 FMM=F ISym2X=0 I1Cent= 0 IOpClX= 0 NMat=1 NMatS=1 NMatT=0.
 -------------------------------------------------------------------
 Center     Atomic                   Forces (Hartrees/Bohr)
 Number     Number              X              Y              Z
 -------------------------------------------------------------------
      1        6           0.000230565   -0.000092334   -0.000000019
      2        6           0.000116818   -0.000080519   -0.000000015
      3        6           0.001339804   -0.000398285   -0.000000011
      4        6           0.000464506    0.000298372   -0.000000006
      5        6           0.000335792   -0.000253109   -0.000000007
      6        6           0.000155379   -0.000020269    0.000000002
      7        1           0.000019288   -0.000007679   -0.000000002
      8        1          -0.000022091   -0.000022930   -0.000000002
      9        1           0.000029297   -0.000018271   -0.000000001
     10        7          -0.001788562    0.001327447    0.000000112
     11        7          -0.001201505   -0.000678431   -0.000000076
     12        8           0.000253305   -0.000066745    0.000000029
     13        6           0.000059516    0.000001394   -0.000000006
     14        1           0.000009002    0.000009963   -0.000000015
     15        1          -0.000000568    0.000000703    0.000000655
     16        1          -0.000000547    0.000000695   -0.000000638
 -------------------------------------------------------------------
 Cartesian Forces:  Max     0.001788562 RMS     0.000444448
 IRC-IRC-IRC-IRC-IRC-IRC-IRC-IRC-IRC-IRC-IRC-IRC-IRC-IRC-IRC-IRC-IRC-IRC
 Pt  3 Step number   1 out of a maximum of1000
 CORRECTOR INTEGRATION CONVERGENCE:
   Recorrection delta-x convergence threshold:    0.010000
   Delta-x Convergence Met
 Point Number:   3          Path Number:   1
   CHANGE IN THE REACTION COORDINATE =    0.03570
   NET REACTION COORDINATE UP TO THIS POINT =    0.10708
  # OF POINTS ALONG THE PATH =   3
  # OF STEPS =   1

 Calculating another point on the path.
 IRC-IRC-IRC-IRC-IRC-IRC-IRC-IRC-IRC-IRC-IRC-IRC-IRC-IRC-IRC-IRC-IRC-IRC
                          Input orientation:                          
 ---------------------------------------------------------------------
 Center     Atomic      Atomic             Coordinates (Angstroms)
 Number     Number       Type             X           Y           Z
 ---------------------------------------------------------------------
      1          6           0       -0.812979   -1.053515   -0.000001
      2          6           0        0.566020   -1.249067   -0.000002
      3          6           0        1.295787   -0.063855   -0.000001
      4          6           0        0.937856    1.228616   -0.000002
      5          6           0       -0.460225    1.388817   -0.000001
      6          6           0       -1.322547    0.271963   -0.000001
      7          1           0       -1.473635   -1.915898   -0.000001
      8          1           0        1.014554   -2.243582   -0.000002
      9          1           0       -0.928393    2.376963   -0.000001
     10          7           0        2.889282   -0.284514    0.000000
     11          7           0        3.979709   -0.049204    0.000008
     12          8           0       -2.656436    0.551823   -0.000001
     13          6           0       -3.592250   -0.522240    0.000000
     14          1           0       -4.581187   -0.053853    0.000004
     15          1           0       -3.483746   -1.146643    0.900070
     16          1           0       -3.483752   -1.146641   -0.900072
 ---------------------------------------------------------------------
                    Distance matrix (angstroms):
                    1          2          3          4          5
     1  C    0.000000
     2  C    1.392796   0.000000
     3  C    2.329447   1.391865   0.000000
     4  C    2.876377   2.505429   1.341117   0.000000
     5  C    2.467675   2.830479   2.278999   1.407230   0.000000
     6  C    1.420054   2.424916   2.639782   2.454508   1.411014
     7  H    1.086356   2.145893   3.331631   3.962733   3.456608
     8  H    2.180857   1.090982   2.197795   3.473045   3.920369
     9  H    3.432418   3.921907   3.302206   2.191252   1.093441
    10  N    3.781283   2.515534   1.608700   2.469337   3.744227
    11  N    4.896785   3.618417   2.683962   3.299347   4.667003
    12  O    2.444472   3.691535   3.999891   3.657456   2.350298
    13  C    2.829594   4.221314   4.909484   4.856682   3.669022
    14  H    3.898552   5.284153   5.876983   5.666089   4.366191
    15  H    2.819893   4.149846   4.982620   5.099270   4.047266
    16  H    2.819898   4.149851   4.982624   5.099273   4.047269
                    6          7          8          9         10
     6  C    0.000000
     7  H    2.193072   0.000000
     8  H    3.433658   2.509673   0.000000
     9  H    2.141584   4.327348   5.012432   0.000000
    10  N    4.248432   4.657945   2.711559   4.653826   0.000000
    11  N    5.311974   5.763983   3.688826   5.475011   1.115528
    12  O    1.362931   2.736543   4.614158   2.513418   5.608427
    13  C    2.404644   2.535905   4.917892   3.937196   6.485890
    14  H    3.274887   3.622719   6.008929   4.387684   7.474029
    15  H    2.737399   2.332901   4.716790   4.444745   6.493757
    16  H    2.737402   2.332907   4.716795   4.444746   6.493762
                   11         12         13         14         15
    11  N    0.000000
    12  O    6.663307   0.000000
    13  C    7.586721   1.424556   0.000000
    14  H    8.560897   2.017798   1.094249   0.000000
    15  H    7.597213   2.092692   1.100808   1.791280   0.000000
    16  H    7.597220   2.092692   1.100808   1.791280   1.800142
                   16
    16  H    0.000000
 Symmetry turned off by external request.
 Stoichiometry    C7H6N2O
 Framework group  C1[X(C7H6N2O)]
 Deg. of freedom    42
 Full point group                 C1      NOp   1
 Rotational constants (GHZ):      4.9428700      0.6982209      0.6142277
 Standard basis: Aug-CC-pVDZ (5D, 7F)
 Integral buffers will be    131072 words long.
 Raffenetti 2 integral format.
 Two-electron integral symmetry is turned off.
   284 basis functions,   496 primitive gaussians,   304 cartesian basis functions
    35 alpha electrons       35 beta electrons
       nuclear repulsion energy       455.2527100888 Hartrees.
 NAtoms=   16 NActive=   16 NUniq=   16 SFac= 1.00D+00 NAtFMM=   50 NAOKFM=F Big=F
 One-electron integrals computed using PRISM.
 NBasis=   284 RedAO= T  NBF=   284
 NBsUse=   284 1.00D-06 NBFU=   284
 Initial guess read from the read-write file.
 B after Tr=     0.000000    0.000000    0.000000
         Rot=    1.000000    0.000000    0.000000    0.000000 Ang=   0.00 deg.
 Harris functional with IExCor=  402 diagonalized for initial guess.
 ExpMin= 2.97D-02 ExpMax= 1.17D+04 ExpMxC= 4.01D+02 IAcc=3 IRadAn=         0 AccDes= 0.00D+00
 HarFok:  IExCor=  402 AccDes= 0.00D+00 IRadAn=         0 IDoV= 1
 ScaDFX=  1.000000  1.000000  1.000000  1.000000
 FoFCou: FMM=F IPFlag=           0 FMFlag=      100000 FMFlg1=           0
         NFxFlg=           0 DoJE=T BraDBF=F KetDBF=T FulRan=T
         Omega=  0.000000  0.000000  1.000000  0.000000  0.000000 ICntrl=     500 IOpCl=  0
         NMat0=    1 NMatS0=    1 NMatT0=    0 NMatD0=    1 NMtDS0=    0 NMtDT0=    0
         I1Cent=           4 NGrid=           0.
 Symmetry not used in FoFCou.
 Requested convergence on RMS density matrix=1.00D-08 within 128 cycles.
 Requested convergence on MAX density matrix=1.00D-06.
 Requested convergence on             energy=1.00D-06.
 No special actions if energy rises.
 SCF Done:  E(RB3LYP) =  -454.976735024     A.U. after   12 cycles
             Convg  =    0.6249D-08             -V/T =  2.0064
 QCSCF skips out because SCF is already converged.
 Range of M.O.s used for correlation:     1   284
 NBasis=   284 NAE=    35 NBE=    35 NFC=     0 NFV=     0
 NROrb=    284 NOA=    35 NOB=    35 NVA=   249 NVB=   249

 **** Warning!!: The largest alpha MO coefficient is  0.99468839D+02

 Symmetrizing basis deriv contribution to polar:
 IMax=3 JMax=2 DiffMx= 0.00D+00
 Calling FoFJK, ICntrl=      2147 FMM=F ISym2X=0 I1Cent= 0 IOpClX= 0 NMat=1 NMatS=1 NMatT=0.
 -------------------------------------------------------------------
 Center     Atomic                   Forces (Hartrees/Bohr)
 Number     Number              X              Y              Z
 -------------------------------------------------------------------
      1        6           0.000307435   -0.000122576   -0.000000018
      2        6           0.000155409   -0.000105674   -0.000000011
      3        6           0.001799022   -0.000526908   -0.000000007
      4        6           0.000619391    0.000404621   -0.000000021
      5        6           0.000438918   -0.000337416   -0.000000007
      6        6           0.000206484   -0.000027544    0.000000000
      7        1           0.000025904   -0.000009953   -0.000000003
      8        1          -0.000031284   -0.000030617   -0.000000002
      9        1           0.000039942   -0.000025995    0.000000000
     10        7          -0.002384264    0.001773349    0.000000106
     11        7          -0.001591527   -0.000907119   -0.000000077
     12        8           0.000334743   -0.000094912    0.000000029
     13        6           0.000065211   -0.000004099   -0.000000002
     14        1           0.000014137    0.000012477   -0.000000014
     15        1           0.000000190    0.000001169    0.000000474
     16        1           0.000000291    0.000001196   -0.000000446
 -------------------------------------------------------------------
 Cartesian Forces:  Max     0.002384264 RMS     0.000592878
 IRC-IRC-IRC-IRC-IRC-IRC-IRC-IRC-IRC-IRC-IRC-IRC-IRC-IRC-IRC-IRC-IRC-IRC
 Pt  4 Step number   1 out of a maximum of1000
 CORRECTOR INTEGRATION CONVERGENCE:
   Recorrection delta-x convergence threshold:    0.010000
   Delta-x Convergence Met
 Point Number:   4          Path Number:   1
   CHANGE IN THE REACTION COORDINATE =    0.03570
   NET REACTION COORDINATE UP TO THIS POINT =    0.14278
  # OF POINTS ALONG THE PATH =   4
  # OF STEPS =   1

 Calculating another point on the path.
 IRC-IRC-IRC-IRC-IRC-IRC-IRC-IRC-IRC-IRC-IRC-IRC-IRC-IRC-IRC-IRC-IRC-IRC
                          Input orientation:                          
 ---------------------------------------------------------------------
 Center     Atomic      Atomic             Coordinates (Angstroms)
 Number     Number       Type             X           Y           Z
 ---------------------------------------------------------------------
      1          6           0       -0.812550   -1.053684   -0.000001
      2          6           0        0.566241   -1.249213   -0.000002
      3          6           0        1.298311   -0.064581   -0.000001
      4          6           0        0.938729    1.229175   -0.000002
      5          6           0       -0.459612    1.388343   -0.000001
      6          6           0       -1.322259    0.271922   -0.000001
      7          1           0       -1.473206   -1.916071   -0.000001
      8          1           0        1.014032   -2.244108   -0.000002
      9          1           0       -0.927744    2.376543   -0.000001
     10          7           0        2.886400   -0.282386    0.000000
     11          7           0        3.977824   -0.050291    0.000008
     12          8           0       -2.656089    0.551720   -0.000001
     13          6           0       -3.592161   -0.522248    0.000000
     14          1           0       -4.580978   -0.053635    0.000003
     15          1           0       -3.483754   -1.146626    0.900077
     16          1           0       -3.483758   -1.146623   -0.900079
 ---------------------------------------------------------------------
                    Distance matrix (angstroms):
                    1          2          3          4          5
     1  C    0.000000
     2  C    1.392586   0.000000
     3  C    2.331106   1.392580   0.000000
     4  C    2.877225   2.506223   1.342797   0.000000
     5  C    2.467399   2.830031   2.280632   1.407371   0.000000
     6  C    1.420223   2.424929   2.642086   2.455280   1.410871
     7  H    1.086360   2.145704   3.333065   3.963585   3.456375
     8  H    2.180255   1.091024   2.197988   3.474099   3.919991
     9  H    3.432160   3.921491   3.303696   2.190930   1.093474
    10  N    3.778509   2.513542   1.602956   2.465409   3.739938
    11  N    4.894331   3.616118   2.679551   3.297443   4.664816
    12  O    2.444577   3.691446   4.002137   3.658096   2.350414
    13  C    2.829958   4.221467   4.911840   4.857618   3.669226
    14  H    3.898865   5.284247   5.879299   5.666813   4.366343
    15  H    2.820303   4.150075   4.984887   5.100287   4.047424
    16  H    2.820306   4.150079   4.984890   5.100289   4.047425
                    6          7          8          9         10
     6  C    0.000000
     7  H    2.193193   0.000000
     8  H    3.433462   2.508777   0.000000
     9  H    2.141278   4.327131   5.012076   0.000000
    10  N    4.245005   4.655651   2.711847   4.649473   0.000000
    11  N    5.309868   5.761498   3.687397   5.473036   1.115829
    12  O    1.362861   2.736641   4.613723   2.513395   5.604901
    13  C    2.404820   2.536280   4.917501   3.937271   6.483000
    14  H    3.274940   3.623108   6.008519   4.387697   7.470881
    15  H    2.737604   2.333343   4.716427   4.444777   6.491218
    16  H    2.737606   2.333347   4.716431   4.444777   6.491221
                   11         12         13         14         15
    11  N    0.000000
    12  O    6.661172   0.000000
    13  C    7.584683   1.424654   0.000000
    14  H    8.558802   2.017833   1.094238   0.000000
    15  H    7.595210   2.092737   1.100790   1.791274   0.000000
    16  H    7.595215   2.092737   1.100790   1.791274   1.800157
                   16
    16  H    0.000000
 Symmetry turned off by external request.
 Stoichiometry    C7H6N2O
 Framework group  C1[X(C7H6N2O)]
 Deg. of freedom    42
 Full point group                 C1      NOp   1
 Rotational constants (GHZ):      4.9431053      0.6986165      0.6145374
 Standard basis: Aug-CC-pVDZ (5D, 7F)
 Integral buffers will be    131072 words long.
 Raffenetti 2 integral format.
 Two-electron integral symmetry is turned off.
   284 basis functions,   496 primitive gaussians,   304 cartesian basis functions
    35 alpha electrons       35 beta electrons
       nuclear repulsion energy       455.3101167863 Hartrees.
 NAtoms=   16 NActive=   16 NUniq=   16 SFac= 1.00D+00 NAtFMM=   50 NAOKFM=F Big=F
 One-electron integrals computed using PRISM.
 NBasis=   284 RedAO= T  NBF=   284
 NBsUse=   284 1.00D-06 NBFU=   284
 Initial guess read from the read-write file.
 B after Tr=     0.000000    0.000000    0.000000
         Rot=    1.000000    0.000000    0.000000    0.000000 Ang=   0.00 deg.
 Harris functional with IExCor=  402 diagonalized for initial guess.
 ExpMin= 2.97D-02 ExpMax= 1.17D+04 ExpMxC= 4.01D+02 IAcc=3 IRadAn=         0 AccDes= 0.00D+00
 HarFok:  IExCor=  402 AccDes= 0.00D+00 IRadAn=         0 IDoV= 1
 ScaDFX=  1.000000  1.000000  1.000000  1.000000
 FoFCou: FMM=F IPFlag=           0 FMFlag=      100000 FMFlg1=           0
         NFxFlg=           0 DoJE=T BraDBF=F KetDBF=T FulRan=T
         Omega=  0.000000  0.000000  1.000000  0.000000  0.000000 ICntrl=     500 IOpCl=  0
         NMat0=    1 NMatS0=    1 NMatT0=    0 NMatD0=    1 NMtDS0=    0 NMtDT0=    0
         I1Cent=           4 NGrid=           0.
 Symmetry not used in FoFCou.
 Requested convergence on RMS density matrix=1.00D-08 within 128 cycles.
 Requested convergence on MAX density matrix=1.00D-06.
 Requested convergence on             energy=1.00D-06.
 No special actions if energy rises.
 DSYEVD returned Info=         427 IAlg= 4 N=   284 NDim=   284 NE2=     1844594 trying DSYEV.
 SCF Done:  E(RB3LYP) =  -454.976780277     A.U. after   12 cycles
             Convg  =    0.6049D-08             -V/T =  2.0064
 QCSCF skips out because SCF is already converged.
 Range of M.O.s used for correlation:     1   284
 NBasis=   284 NAE=    35 NBE=    35 NFC=     0 NFV=     0
 NROrb=    284 NOA=    35 NOB=    35 NVA=   249 NVB=   249

 **** Warning!!: The largest alpha MO coefficient is  0.99389250D+02

 Symmetrizing basis deriv contribution to polar:
 IMax=3 JMax=2 DiffMx= 0.00D+00
 Calling FoFJK, ICntrl=      2147 FMM=F ISym2X=0 I1Cent= 0 IOpClX= 0 NMat=1 NMatS=1 NMatT=0.
 -------------------------------------------------------------------
 Center     Atomic                   Forces (Hartrees/Bohr)
 Number     Number              X              Y              Z
 -------------------------------------------------------------------
      1        6           0.000389539   -0.000151980   -0.000000017
      2        6           0.000196701   -0.000134037   -0.000000009
      3        6           0.002247526   -0.000653778   -0.000000008
      4        6           0.000774657    0.000508685    0.000000008
      5        6           0.000549412   -0.000423089   -0.000000017
      6        6           0.000270952   -0.000034874    0.000000006
      7        1           0.000030507   -0.000013394    0.000000000
      8        1          -0.000039473   -0.000038677   -0.000000001
      9        1           0.000047761   -0.000032753   -0.000000001
     10        7          -0.002972421    0.002224647    0.000000102
     11        7          -0.002004052   -0.001138058   -0.000000079
     12        8           0.000411396   -0.000122304    0.000000083
     13        6           0.000085567   -0.000007916   -0.000000010
     14        1           0.000013149    0.000015285   -0.000000038
     15        1          -0.000000576    0.000001163    0.000000546
     16        1          -0.000000646    0.000001081   -0.000000565
 -------------------------------------------------------------------
 Cartesian Forces:  Max     0.002972421 RMS     0.000741899
 IRC-IRC-IRC-IRC-IRC-IRC-IRC-IRC-IRC-IRC-IRC-IRC-IRC-IRC-IRC-IRC-IRC-IRC
 Pt  5 Step number   1 out of a maximum of1000
 CORRECTOR INTEGRATION CONVERGENCE:
   Recorrection delta-x convergence threshold:    0.010000
   Delta-x Convergence Met
 Point Number:   5          Path Number:   1
   CHANGE IN THE REACTION COORDINATE =    0.03570
   NET REACTION COORDINATE UP TO THIS POINT =    0.17848
  # OF POINTS ALONG THE PATH =   5
  # OF STEPS =   1

 Calculating another point on the path.
 IRC-IRC-IRC-IRC-IRC-IRC-IRC-IRC-IRC-IRC-IRC-IRC-IRC-IRC-IRC-IRC-IRC-IRC
                          Input orientation:                          
 ---------------------------------------------------------------------
 Center     Atomic      Atomic             Coordinates (Angstroms)
 Number     Number       Type             X           Y           Z
 ---------------------------------------------------------------------
      1          6           0       -0.812115   -1.053854   -0.000001
      2          6           0        0.566463   -1.249365   -0.000002
      3          6           0        1.300823   -0.065306   -0.000001
      4          6           0        0.939600    1.229743   -0.000002
      5          6           0       -0.458999    1.387871   -0.000001
      6          6           0       -1.321955    0.271880   -0.000001
      7          1           0       -1.472789   -1.916238   -0.000001
      8          1           0        1.013510   -2.244638   -0.000002
      9          1           0       -0.927114    2.376115   -0.000001
     10          7           0        2.883523   -0.280257    0.000001
     11          7           0        3.975924   -0.051377    0.000008
     12          8           0       -2.655742    0.551617   -0.000001
     13          6           0       -3.592067   -0.522257    0.000000
     14          1           0       -4.580782   -0.053438    0.000003
     15          1           0       -3.483760   -1.146612    0.900085
     16          1           0       -3.483765   -1.146610   -0.900087
 ---------------------------------------------------------------------
                    Distance matrix (angstroms):
                    1          2          3          4          5
     1  C    0.000000
     2  C    1.392373   0.000000
     3  C    2.332752   1.393297   0.000000
     4  C    2.878076   2.507031   1.344483   0.000000
     5  C    2.467126   2.829590   2.282257   1.407509   0.000000
     6  C    1.420391   2.424935   2.644364   2.456040   1.410719
     7  H    1.086368   2.145523   3.334497   3.964444   3.456140
     8  H    2.179650   1.091064   2.198189   3.475167   3.919618
     9  H    3.431896   3.921081   3.305184   2.190614   1.093507
    10  N    3.775738   2.511561   1.597230   2.461491   3.735653
    11  N    4.891859   3.613807   2.675137   3.295532   4.662614
    12  O    2.444688   3.691361   4.004373   3.658735   2.350533
    13  C    2.830323   4.221618   4.914181   4.858550   3.669428
    14  H    3.899190   5.284351   5.881617   5.667554   4.366517
    15  H    2.820717   4.150304   4.987144   5.101307   4.047584
    16  H    2.820721   4.150308   4.987148   5.101309   4.047586
                    6          7          8          9         10
     6  C    0.000000
     7  H    2.193311   0.000000
     8  H    3.433259   2.507894   0.000000
     9  H    2.140958   4.326899   5.011724   0.000000
    10  N    4.241569   4.653374   2.712147   4.645134   0.000000
    11  N    5.307732   5.759009   3.685959   5.471060   1.116121
    12  O    1.362806   2.736729   4.613291   2.513354   5.601382
    13  C    2.405007   2.536635   4.917106   3.937326   6.480110
    14  H    3.275024   3.623485   6.008116   4.387712   7.467750
    15  H    2.737823   2.333770   4.716063   4.444794   6.488684
    16  H    2.737825   2.333774   4.716068   4.444795   6.488689
                   11         12         13         14         15
    11  N    0.000000
    12  O    6.659024   0.000000
    13  C    7.582626   1.424749   0.000000
    14  H    8.556706   2.017887   1.094234   0.000000
    15  H    7.593192   2.092785   1.100773   1.791266   0.000000
    16  H    7.593198   2.092785   1.100773   1.791266   1.800171
                   16
    16  H    0.000000
 Symmetry turned off by external request.
 Stoichiometry    C7H6N2O
 Framework group  C1[X(C7H6N2O)]
 Deg. of freedom    42
 Full point group                 C1      NOp   1
 Rotational constants (GHZ):      4.9433084      0.6990144      0.6148485
 Standard basis: Aug-CC-pVDZ (5D, 7F)
 Integral buffers will be    131072 words long.
 Raffenetti 2 integral format.
 Two-electron integral symmetry is turned off.
   284 basis functions,   496 primitive gaussians,   304 cartesian basis functions
    35 alpha electrons       35 beta electrons
       nuclear repulsion energy       455.3681339133 Hartrees.
 NAtoms=   16 NActive=   16 NUniq=   16 SFac= 1.00D+00 NAtFMM=   50 NAOKFM=F Big=F
 One-electron integrals computed using PRISM.
 NBasis=   284 RedAO= T  NBF=   284
 NBsUse=   284 1.00D-06 NBFU=   284
 Initial guess read from the read-write file.
 B after Tr=     0.000000    0.000000    0.000000
         Rot=    1.000000    0.000000    0.000000    0.000000 Ang=   0.00 deg.
 Harris functional with IExCor=  402 diagonalized for initial guess.
 ExpMin= 2.97D-02 ExpMax= 1.17D+04 ExpMxC= 4.01D+02 IAcc=3 IRadAn=         0 AccDes= 0.00D+00
 HarFok:  IExCor=  402 AccDes= 0.00D+00 IRadAn=         0 IDoV= 1
 ScaDFX=  1.000000  1.000000  1.000000  1.000000
 FoFCou: FMM=F IPFlag=           0 FMFlag=      100000 FMFlg1=           0
         NFxFlg=           0 DoJE=T BraDBF=F KetDBF=T FulRan=T
         Omega=  0.000000  0.000000  1.000000  0.000000  0.000000 ICntrl=     500 IOpCl=  0
         NMat0=    1 NMatS0=    1 NMatT0=    0 NMatD0=    1 NMtDS0=    0 NMtDT0=    0
         I1Cent=           4 NGrid=           0.
 Symmetry not used in FoFCou.
 Requested convergence on RMS density matrix=1.00D-08 within 128 cycles.
 Requested convergence on MAX density matrix=1.00D-06.
 Requested convergence on             energy=1.00D-06.
 No special actions if energy rises.
 SCF Done:  E(RB3LYP) =  -454.976835562     A.U. after   12 cycles
             Convg  =    0.6043D-08             -V/T =  2.0065
 QCSCF skips out because SCF is already converged.
 Range of M.O.s used for correlation:     1   284
 NBasis=   284 NAE=    35 NBE=    35 NFC=     0 NFV=     0
 NROrb=    284 NOA=    35 NOB=    35 NVA=   249 NVB=   249

 **** Warning!!: The largest alpha MO coefficient is  0.99282143D+02

 Symmetrizing basis deriv contribution to polar:
 IMax=3 JMax=2 DiffMx= 0.00D+00
 Calling FoFJK, ICntrl=      2147 FMM=F ISym2X=0 I1Cent= 0 IOpClX= 0 NMat=1 NMatS=1 NMatT=0.
 -------------------------------------------------------------------
 Center     Atomic                   Forces (Hartrees/Bohr)
 Number     Number              X              Y              Z
 -------------------------------------------------------------------
      1        6           0.000465429   -0.000184735   -0.000000016
      2        6           0.000231774   -0.000167498   -0.000000007
      3        6           0.002700749   -0.000787043   -0.000000003
      4        6           0.000924401    0.000621558    0.000000006
      5        6           0.000655308   -0.000504794   -0.000000011
      6        6           0.000308385   -0.000040648   -0.000000003
      7        1           0.000040130   -0.000014758   -0.000000002
      8        1          -0.000047124   -0.000045952   -0.000000001
      9        1           0.000056680   -0.000037406   -0.000000001
     10        7          -0.003572836    0.002667192    0.000000100
     11        7          -0.002376359   -0.001363644   -0.000000081
     12        8           0.000497340   -0.000149966    0.000000017
     13        6           0.000101926   -0.000013098   -0.000000020
     14        1           0.000017545    0.000018175   -0.000000003
     15        1          -0.000001687    0.000001307    0.000000884
     16        1          -0.000001660    0.000001311   -0.000000858
 -------------------------------------------------------------------
 Cartesian Forces:  Max     0.003572836 RMS     0.000889117
 IRC-IRC-IRC-IRC-IRC-IRC-IRC-IRC-IRC-IRC-IRC-IRC-IRC-IRC-IRC-IRC-IRC-IRC
 Pt  6 Step number   1 out of a maximum of1000
 CORRECTOR INTEGRATION CONVERGENCE:
   Recorrection delta-x convergence threshold:    0.010000
   Delta-x Convergence Met
 Point Number:   6          Path Number:   1
   CHANGE IN THE REACTION COORDINATE =    0.03570
   NET REACTION COORDINATE UP TO THIS POINT =    0.21417
  # OF POINTS ALONG THE PATH =   6
  # OF STEPS =   1

 Calculating another point on the path.
 IRC-IRC-IRC-IRC-IRC-IRC-IRC-IRC-IRC-IRC-IRC-IRC-IRC-IRC-IRC-IRC-IRC-IRC
                          Input orientation:                          
 ---------------------------------------------------------------------
 Center     Atomic      Atomic             Coordinates (Angstroms)
 Number     Number       Type             X           Y           Z
 ---------------------------------------------------------------------
      1          6           0       -0.811681   -1.054025   -0.000001
      2          6           0        0.566681   -1.249521   -0.000002
      3          6           0        1.303347   -0.066038   -0.000001
      4          6           0        0.940465    1.230322   -0.000002
      5          6           0       -0.458390    1.387400   -0.000001
      6          6           0       -1.321668    0.271842   -0.000001
      7          1           0       -1.472352   -1.916414   -0.000001
      8          1           0        1.012985   -2.245169   -0.000002
      9          1           0       -0.926484    2.375694   -0.000001
     10          7           0        2.880655   -0.278121    0.000001
     11          7           0        3.974035   -0.052469    0.000008
     12          8           0       -2.655396    0.551511   -0.000001
     13          6           0       -3.591973   -0.522270    0.000000
     14          1           0       -4.580581   -0.053236    0.000003
     15          1           0       -3.483778   -1.146599    0.900094
     16          1           0       -3.483782   -1.146597   -0.900096
 ---------------------------------------------------------------------
                    Distance matrix (angstroms):
                    1          2          3          4          5
     1  C    0.000000
     2  C    1.392157   0.000000
     3  C    2.334409   1.394026   0.000000
     4  C    2.878934   2.507854   1.346191   0.000000
     5  C    2.466855   2.829156   2.283900   1.407647   0.000000
     6  C    1.420567   2.424955   2.646671   2.456813   1.410574
     7  H    1.086370   2.145321   3.335925   3.965304   3.455909
     8  H    2.179043   1.091101   2.198391   3.476247   3.919247
     9  H    3.431640   3.920679   3.306691   2.190292   1.093544
    10  N    3.772980   2.509601   1.591502   2.457587   3.731378
    11  N    4.889397   3.611509   2.670723   3.293645   4.660431
    12  O    2.444796   3.691272   4.006621   3.659371   2.350648
    13  C    2.830686   4.221764   4.916534   4.859483   3.669630
    14  H    3.899511   5.284449   5.883942   5.668287   4.366680
    15  H    2.821142   4.150540   4.989424   5.102338   4.047751
    16  H    2.821146   4.150544   4.989427   5.102340   4.047753
                    6          7          8          9         10
     6  C    0.000000
     7  H    2.193438   0.000000
     8  H    3.433066   2.506986   0.000000
     9  H    2.140646   4.326681   5.011379   0.000000
    10  N    4.238157   4.651094   2.712465   4.640802   0.000000
    11  N    5.305624   5.756511   3.684529   5.469101   1.116423
[...]
 438                   -0.00465   1.24945
 439                   -0.00481   1.28515
 440                   -0.00496   1.32085
 441                   -0.00511   1.35655
 442                   -0.00525   1.39224
 443                   -0.00537   1.42794
 444                   -0.00550   1.46363
 445                   -0.00561   1.49932
 446                   -0.00571   1.53502
 447                   -0.00581   1.57071
 448                   -0.00590   1.60640
 449                   -0.00598   1.64208
 450                   -0.00606   1.67777
 451                   -0.00613   1.71346
 452                   -0.00619   1.74915
 453                   -0.00625   1.78484
 454                   -0.00631   1.82052
 455                   -0.00636   1.85621
 456                   -0.00640   1.89190
 457                   -0.00645   1.92759
 458                   -0.00649   1.96328
 459                   -0.00653   1.99897
 460                   -0.00656   2.03466
 461                   -0.00660   2.07035
 462                   -0.00663   2.10604
 463                   -0.00666   2.14174
 464                   -0.00669   2.17743
 465                   -0.00672   2.21313
 466                   -0.00674   2.24883
 467                   -0.00677   2.28452
 468                   -0.00679   2.32022
 469                   -0.00681   2.35592
 470                   -0.00684   2.39162
 471                   -0.00686   2.42732
 472                   -0.00687   2.46302
 473                   -0.00689   2.49871
 474                   -0.00691   2.53437
 475                   -0.00692   2.56985
 476                   -0.00694   2.60496
 477                   -0.00695   2.63987
 478                   -0.00696   2.67423
 479                   -0.00697   2.70985
 480                   -0.00698   2.74545
 481                   -0.00699   2.78093
 482                   -0.00700   2.81612
 483                   -0.00701   2.85110
 484                   -0.00701   2.88618
 485                   -0.00702   2.92149
 486                   -0.00702   2.95703
 487                   -0.00702   2.99267
 488                   -0.00702   3.02803
 --------------------------------------------------------------------------
 
 Total number of points:                  487
 Total number of gradient calculations:   489
 Total number of Hessian calculations:      1
 IRC-IRC-IRC-IRC-IRC-IRC-IRC-IRC-IRC-IRC-IRC-IRC-IRC-IRC-IRC-IRC-IRC-IRC
                          Input orientation:                          
 ---------------------------------------------------------------------
 Center     Atomic      Atomic             Coordinates (Angstroms)
 Number     Number       Type             X           Y           Z
 ---------------------------------------------------------------------
      1          6           0       -1.012959   -0.933519   -0.000002
      2          6           0        0.391979   -1.083326   -0.000003
      3          6           0        1.026706    0.148525   -0.000003
      4          6           0        0.472851    1.272779   -0.000002
      5          6           0       -0.879047    1.549016   -0.000002
      6          6           0       -1.633523    0.341898   -0.000001
      7          1           0       -1.623503   -1.833819   -0.000002
      8          1           0        0.869562   -2.061349   -0.000003
      9          1           0       -1.373038    2.518190   -0.000001
     10          7           0        4.231318   -0.883393    0.000002
     11          7           0        4.894961   -0.001049    0.000009
     12          8           0       -2.989105    0.524118    0.000000
     13          6           0       -3.834987   -0.621123    0.000000
     14          1           0       -4.858583   -0.233853    0.000001
     15          1           0       -3.675010   -1.234632    0.900049
     16          1           0       -3.675011   -1.234632   -0.900050
 ---------------------------------------------------------------------
                    Distance matrix (angstroms):
                    1          2          3          4          5
     1  C    0.000000
     2  C    1.412901   0.000000
     3  C    2.308907   1.385762   0.000000
     4  C    2.659959   2.357492   1.253277   0.000000
     5  C    2.486144   2.923137   2.365009   1.379832   0.000000
     6  C    1.418376   2.476676   2.667249   2.302901   1.423505
     7  H    1.087799   2.150676   3.309577   3.747753   3.463782
     8  H    2.194512   1.088400   2.215454   3.357646   4.011529
     9  H    3.470440   4.010761   3.372549   2.226737   1.087808
    10  N    5.244516   3.844541   3.366658   4.333030   5.659721
    11  N    5.981055   4.631217   3.871145   4.601923   5.978450
    12  O    2.455577   3.743742   4.033338   3.541982   2.345797
    13  C    2.839267   4.252161   4.922238   4.705777   3.667027
    14  H    3.908754   5.318834   5.897698   5.540228   4.360657
    15  H    2.826178   4.168139   4.982906   4.929702   4.046752
    16  H    2.826178   4.168139   4.982907   4.929702   4.046752
                    6          7          8          9         10
     6  C    0.000000
     7  H    2.175741   0.000000
     8  H    3.470019   2.503426   0.000000
     9  H    2.191826   4.359211   5.099160   0.000000
    10  N    5.991469   5.931462   3.562160   6.555880   0.000000
    11  N    6.537486   6.771220   4.522021   6.755322   1.104062
    12  O    1.367774   2.724837   4.644776   2.566710   7.356330
    13  C    2.402884   2.522161   4.920064   3.989547   8.070568
    14  H    3.276049   3.609104   6.012601   4.441032   9.113078
    15  H    2.731887   2.319008   4.706027   4.493645   7.965141
    16  H    2.731887   2.319008   4.706027   4.493645   7.965143
                   11         12         13         14         15
    11  N    0.000000
    12  O    7.901538   0.000000
    13  C    8.751942   1.423760   0.000000
    14  H    9.756322   2.017291   1.094406   0.000000
    15  H    8.704953   2.091353   1.100943   1.792342   0.000000
    16  H    8.704956   2.091353   1.100943   1.792342   1.800099
                   16
    16  H    0.000000
 Symmetry turned off by external request.
 Stoichiometry    C7H6N2O
 Framework group  C1[X(C7H6N2O)]
 Deg. of freedom    42
 Full point group                 C1      NOp   1
 Rotational constants (GHZ):      4.5671464      0.4873764      0.4416385

 **********************************************************************

            Population analysis using the SCF density.

 **********************************************************************

 Alpha  occ. eigenvalues --  -19.19048 -14.44310 -14.44155 -10.26766 -10.25139
 Alpha  occ. eigenvalues --  -10.22867 -10.21933 -10.20764 -10.20563 -10.20088
 Alpha  occ. eigenvalues --   -1.12824  -1.08126  -0.87652  -0.77524  -0.75597
 Alpha  occ. eigenvalues --   -0.70440  -0.63190  -0.58234  -0.55678  -0.53662
 Alpha  occ. eigenvalues --   -0.49773  -0.48092  -0.47214  -0.46532  -0.46521
 Alpha  occ. eigenvalues --   -0.45100  -0.43223  -0.42998  -0.40883  -0.39796
 Alpha  occ. eigenvalues --   -0.35160  -0.34230  -0.27279  -0.27029  -0.23787
 Alpha virt. eigenvalues --   -0.08828  -0.03691  -0.03278  -0.03066  -0.01384
 Alpha virt. eigenvalues --    0.00497   0.00734   0.00902   0.02037   0.02594
 Alpha virt. eigenvalues --    0.03210   0.04003   0.05353   0.06105   0.06471
 Alpha virt. eigenvalues --    0.07351   0.07655   0.08608   0.09056   0.09109
 Alpha virt. eigenvalues --    0.09304   0.09526   0.10495   0.10532   0.10806
 Alpha virt. eigenvalues --    0.11634   0.11672   0.12777   0.12889   0.13055
 Alpha virt. eigenvalues --    0.13292   0.13731   0.14307   0.14864   0.14932
 Alpha virt. eigenvalues --    0.16710   0.16768   0.17610   0.18510   0.18762
 Alpha virt. eigenvalues --    0.21196   0.21232   0.21508   0.21806   0.22270
 Alpha virt. eigenvalues --    0.22868   0.22980   0.24462   0.24856   0.25152
 Alpha virt. eigenvalues --    0.25681   0.26418   0.26994   0.27579   0.28302
 Alpha virt. eigenvalues --    0.28400   0.28955   0.29769   0.30895   0.31400
 Alpha virt. eigenvalues --    0.31921   0.32154   0.33047   0.33742   0.35186
 Alpha virt. eigenvalues --    0.35727   0.36906   0.38199   0.38924   0.39506
 Alpha virt. eigenvalues --    0.40557   0.41587   0.42224   0.42428   0.42740
 Alpha virt. eigenvalues --    0.45618   0.45659   0.46081   0.46211   0.47642
 Alpha virt. eigenvalues --    0.49227   0.49232   0.50517   0.51251   0.51674
 Alpha virt. eigenvalues --    0.51955   0.52264   0.52882   0.53303   0.53785
 Alpha virt. eigenvalues --    0.54854   0.55411   0.57568   0.58373   0.58995
 Alpha virt. eigenvalues --    0.59187   0.59780   0.60763   0.60926   0.61115
 Alpha virt. eigenvalues --    0.62245   0.62837   0.63599   0.64394   0.64598
 Alpha virt. eigenvalues --    0.65045   0.65094   0.66479   0.67000   0.68151
 Alpha virt. eigenvalues --    0.69762   0.70276   0.70636   0.71885   0.72592
 Alpha virt. eigenvalues --    0.73051   0.73778   0.75105   0.76289   0.77788
 Alpha virt. eigenvalues --    0.78468   0.78966   0.79329   0.81004   0.81516
 Alpha virt. eigenvalues --    0.82342   0.82583   0.84298   0.84781   0.85466
 Alpha virt. eigenvalues --    0.85658   0.86078   0.87239   0.91967   0.93284
 Alpha virt. eigenvalues --    0.95870   0.96203   0.96495   0.96788   1.01011
 Alpha virt. eigenvalues --    1.01484   1.03258   1.05838   1.07032   1.08760
 Alpha virt. eigenvalues --    1.13584   1.13883   1.15042   1.15442   1.17553
 Alpha virt. eigenvalues --    1.18980   1.21978   1.22498   1.24642   1.27623
 Alpha virt. eigenvalues --    1.29069   1.29367   1.29896   1.33242   1.35043
 Alpha virt. eigenvalues --    1.36154   1.36822   1.38944   1.42380   1.43272
 Alpha virt. eigenvalues --    1.44468   1.44576   1.47438   1.47932   1.48493
 Alpha virt. eigenvalues --    1.48769   1.49656   1.54840   1.56072   1.57183
 Alpha virt. eigenvalues --    1.60033   1.60477   1.62314   1.63388   1.64186
 Alpha virt. eigenvalues --    1.64854   1.65122   1.66950   1.70037   1.70919
 Alpha virt. eigenvalues --    1.72277   1.72922   1.74418   1.78643   1.80337
 Alpha virt. eigenvalues --    1.82179   1.85318   1.88374   1.88871   1.89657
 Alpha virt. eigenvalues --    1.91226   1.93197   1.93432   1.94436   1.96411
 Alpha virt. eigenvalues --    1.97744   1.98773   2.00441   2.01577   2.02865
 Alpha virt. eigenvalues --    2.03691   2.04961   2.06125   2.08077   2.10026
 Alpha virt. eigenvalues --    2.10545   2.16389   2.20224   2.24910   2.26867
 Alpha virt. eigenvalues --    2.34110   2.34768   2.35257   2.35982   2.37454
 Alpha virt. eigenvalues --    2.39305   2.43663   2.46767   2.49158   2.55986
 Alpha virt. eigenvalues --    2.57132   2.58607   2.59381   2.63032   2.68122
 Alpha virt. eigenvalues --    2.70927   2.74686   2.78838   2.79461   2.81039
 Alpha virt. eigenvalues --    2.83821   2.86370   2.90678   2.97104   2.98433
 Alpha virt. eigenvalues --    3.14027   3.14944   3.33524   3.39796   3.49383
 Alpha virt. eigenvalues --    3.49567   3.64969   3.76604   4.07214
          Condensed to atoms (all electrons):
              1          2          3          4          5          6
     1  C   15.404671  -4.548114   1.654807  -2.494387   1.227349  -5.480121
     2  C   -4.548114  13.409501  -2.122707   0.878838  -3.053804   1.747994
     3  C    1.654807  -2.122707   8.680677  -1.136051   1.246637  -2.325479
     4  C   -2.494387   0.878838  -1.136051   9.910061  -1.613688   1.291312
     5  C    1.227349  -3.053804   1.246637  -1.613688  11.217892  -2.541862
     6  C   -5.480121   1.747994  -2.325479   1.291312  -2.541862  12.201353
     7  H   -2.873209   0.469749  -0.514572   0.145576  -0.050316   1.211371
     8  H    1.189753  -1.968315   0.465571  -0.114339   0.192607  -0.400237
     9  H   -0.327822   0.202879  -0.029818   0.198804  -1.353354   0.749397
    10  N   -0.029376   0.066878  -0.074442   0.009652  -0.003628   0.001712
    11  N   -0.001037  -0.042085   0.020403   0.020325   0.016175  -0.006634
    12  O    1.002336  -0.116450   0.084145  -0.174667  -0.074907  -1.028151
    13  C   -0.101701  -0.067992  -0.034924   0.048901  -0.056949   0.015654
    14  H   -0.371088  -0.047059  -0.002342   0.028528   0.065339   0.416959
    15  H    0.216266   0.065436   0.004835  -0.009359  -0.060088  -0.211042
    16  H    0.216266   0.065436   0.004835  -0.009359  -0.060088  -0.211042
              7          8          9         10         11         12
     1  C   -2.873209   1.189753  -0.327822  -0.029376  -0.001037   1.002336
     2  C    0.469749  -1.968315   0.202879   0.066878  -0.042085  -0.116450
     3  C   -0.514572   0.465571  -0.029818  -0.074442   0.020403   0.084145
     4  C    0.145576  -0.114339   0.198804   0.009652   0.020325  -0.174667
     5  C   -0.050316   0.192607  -1.353354  -0.003628   0.016175  -0.074907
     6  C    1.211371  -0.400237   0.749397   0.001712  -0.006634  -1.028151
     7  H    4.402474  -0.246976  -0.026711   0.000951   0.000508  -0.224563
     8  H   -0.246976   2.551636   0.011904  -0.016582  -0.003312  -0.000058
     9  H   -0.026711   0.011904   2.375867   0.000245  -0.000036  -0.146893
    10  N    0.000951  -0.016582   0.000245   7.282373  -0.340514  -0.000175
    11  N    0.000508  -0.003312  -0.000036  -0.340514   7.442459   0.000079
    12  O   -0.224563  -0.000058  -0.146893  -0.000175   0.000079   9.343343
    13  C    0.098498   0.012930   0.000281  -0.000304  -0.000065   0.141743
    14  H    0.052456  -0.000068  -0.006323   0.000009  -0.000006  -0.425641
    15  H   -0.101373   0.001861   0.004189  -0.000054  -0.000011   0.125390
    16  H   -0.101373   0.001861   0.004189  -0.000054  -0.000011   0.125390
             13         14         15         16
     1  C   -0.101701  -0.371088   0.216266   0.216266
     2  C   -0.067992  -0.047059   0.065436   0.065436
     3  C   -0.034924  -0.002342   0.004835   0.004835
     4  C    0.048901   0.028528  -0.009359  -0.009359
     5  C   -0.056949   0.065339  -0.060088  -0.060088
     6  C    0.015654   0.416959  -0.211042  -0.211042
     7  H    0.098498   0.052456  -0.101373  -0.101373
     8  H    0.012930  -0.000068   0.001861   0.001861
     9  H    0.000281  -0.006323   0.004189   0.004189
    10  N   -0.000304   0.000009  -0.000054  -0.000054
    11  N   -0.000065  -0.000006  -0.000011  -0.000011
    12  O    0.141743  -0.425641   0.125390   0.125390
    13  C    4.030968   0.259923   0.225036   0.225036
    14  H    0.259923   2.699771  -0.559714  -0.559713
    15  H    0.225036  -0.559714   1.627007  -0.135601
    16  H    0.225036  -0.559713  -0.135601   1.627007
 Mulliken atomic charges:
              1
     1  C    1.315406
     2  C    1.059816
     3  C    0.078424
     4  C   -0.980147
     5  C    0.902686
     6  C    0.568815
     7  H   -1.242491
     8  H   -0.678236
     9  H   -0.656797
    10  N    0.103311
    11  N   -0.106240
    12  O   -0.630921
    13  C    1.202966
    14  H   -0.551031
    15  H   -0.192779
    16  H   -0.192779
 Sum of Mulliken atomic charges =   0.00000
 Mulliken charges with hydrogens summed into heavy atoms:
              1
     1  C    0.072914
     2  C    0.381580
     3  C    0.078424
     4  C   -0.980147
     5  C    0.245888
     6  C    0.568815
    10  N    0.103311
    11  N   -0.106240
    12  O   -0.630921
    13  C    0.266376
 Sum of Mulliken charges with hydrogens summed into heavy atoms =   0.00000
 APT atomic charges:
              1
     1  C    0.862338
     2  C    0.033808
     3  C   -0.267203
     4  C    0.133839
     5  C    0.751754
     6  C   -0.568665
     7  H   -0.635006
     8  H   -0.147835
     9  H   -0.202707
    10  N   -0.855240
    11  N    0.824652
    12  O   -0.131624
    13  C   -0.406917
    14  H   -0.405894
    15  H    0.507350
    16  H    0.507350
 Sum of APT charges=   0.00000
 APT Atomic charges with hydrogens summed into heavy atoms:
              1
     1  C    0.227332
     2  C   -0.114027
     3  C   -0.267203
     4  C    0.133839
     5  C    0.549047
     6  C   -0.568665
     7  H    0.000000
     8  H    0.000000
     9  H    0.000000
    10  N   -0.855240
    11  N    0.824652
    12  O   -0.131624
    13  C    0.201889
    14  H    0.000000
    15  H    0.000000
    16  H    0.000000
 Sum of APT charges=   0.00000
 Electronic spatial extent (au):  <R**2>=           2302.4812
 Charge=              0.0000 electrons
 Dipole moment (field-independent basis, Debye):
    X=             -2.1397    Y=             -1.9151    Z=              0.0000  Tot=              2.8716
 Quadrupole moment (field-independent basis, Debye-Ang):
   XX=            -52.3502   YY=            -54.8617   ZZ=            -60.0768
   XY=              1.9033   XZ=              0.0000   YZ=              0.0000
 Traceless Quadrupole moment (field-independent basis, Debye-Ang):
   XX=              3.4127   YY=              0.9012   ZZ=             -4.3139
   XY=              1.9033   XZ=              0.0000   YZ=              0.0000
 Octapole moment (field-independent basis, Debye-Ang**2):
  XXX=            -24.6081  YYY=              3.1451  ZZZ=              0.0001  XYY=             -0.5527
  XXY=            -21.7864  XXZ=              0.0000  XZZ=              6.9998  YZZ=              0.0584
  YYZ=              0.0000  XYZ=              0.0000
 Hexadecapole moment (field-independent basis, Debye-Ang**3):
 XXXX=          -2450.1553 YYYY=           -355.7252 ZZZZ=            -74.3240 XXXY=             45.8114
 XXXZ=             -0.0013 YYYX=             29.8902 YYYZ=              0.0000 ZZZX=             -0.0009
 ZZZY=              0.0000 XXYY=           -499.0541 XXZZ=           -439.0248 YYZZ=            -80.6653
 XXYZ=             -0.0002 YYXZ=             -0.0003 ZZXY=             14.5684
 N-N= 4.249478290653D+02 E-N=-1.909185494156D+03  KE= 4.520809813935D+02
  Exact polarizability:   0.000   0.000   0.000   0.000   0.000   0.000
 Approx polarizability: 190.254 -10.373 212.867   0.000   0.000  95.590
 -------------------------------------------------------------------
 Center     Atomic                   Forces (Hartrees/Bohr)
 Number     Number              X              Y              Z
 -------------------------------------------------------------------
      1        6          -0.000015351    0.000022036    0.000000000
      2        6           0.000006393    0.000043716    0.000000001
      3        6          -0.000074465    0.000142088    0.000000000
      4        6          -0.000037773   -0.000002296    0.000000000
      5        6          -0.000069059    0.000028311    0.000000000
      6        6          -0.000045843   -0.000003085    0.000000000
      7        1           0.000000815    0.000000146    0.000000000
      8        1           0.000000485   -0.000001608    0.000000000
      9        1          -0.000004188    0.000002930    0.000000000
     10        7           0.000009771   -0.000069821    0.000000001
     11        7           0.000308773   -0.000058967   -0.000000001
     12        8          -0.000066563   -0.000041827    0.000000000
     13        6          -0.000016229   -0.000055278    0.000000002
     14        1          -0.000000775   -0.000002804    0.000000000
     15        1           0.000002004   -0.000001770    0.000000216
     16        1           0.000002006   -0.000001772   -0.000000218
 -------------------------------------------------------------------
 Cartesian Forces:  Max     0.000308773 RMS     0.000056062

 This type of calculation cannot be archived.


 IF YOU PERCEIVE THAT THERE ARE FOUR POSSIBLE WAYS IN
 WHICH A PROCEDURE CAN GO WRONG AND CIRCUMVENT THESE, 
 THEN A FIFTH WAY WILL DEVELOP.

                              -- MURPHY'S TWELFTH LAW
 Job cpu time:  3 days 17 hours 21 minutes 45.0 seconds.
 File lengths (MBytes):  RWF=    141 Int=      0 D2E=      0 Chk=     23 Scr=      1
 Normal termination of Gaussian 09 at Sun Dec 23 07:33:46 2018.
