 Entering Gaussian System, Link 0=/home/ubuntu/g09/g09
 Input=4-HOOC-C6H3-IRC.gjf
 Output=4-HOOC-C6H3-IRC.log
 Initial command:
 /home/ubuntu/g09/l1.exe /home/ubuntu/g09/Gau-6294.inp -scrdir=/home/ubuntu/g09/
 Entering Link 1 = /home/ubuntu/g09/l1.exe PID=      6296.
  
 Copyright (c) 1988,1990,1992,1993,1995,1998,2003,2009,2010,
            Gaussian, Inc.  All Rights Reserved.
  
 This is part of the Gaussian(R) 09 program.  It is based on
 the Gaussian(R) 03 system (copyright 2003, Gaussian, Inc.),
 the Gaussian(R) 98 system (copyright 1998, Gaussian, Inc.),
 the Gaussian(R) 94 system (copyright 1995, Gaussian, Inc.),
 the Gaussian 92(TM) system (copyright 1992, Gaussian, Inc.),
 the Gaussian 90(TM) system (copyright 1990, Gaussian, Inc.),
 the Gaussian 88(TM) system (copyright 1988, Gaussian, Inc.),
 the Gaussian 86(TM) system (copyright 1986, Carnegie Mellon
 University), and the Gaussian 82(TM) system (copyright 1983,
 Carnegie Mellon University). Gaussian is a federally registered
 trademark of Gaussian, Inc.
  
 This software contains proprietary and confidential information,
 including trade secrets, belonging to Gaussian, Inc.
  
 This software is provided under written license and may be
 used, copied, transmitted, or stored only in accord with that
 written license.
  
 The following legend is applicable only to US Government
 contracts under FAR:
  
                    RESTRICTED RIGHTS LEGEND
  
 Use, reproduction and disclosure by the US Government is
 subject to restrictions as set forth in subparagraphs (a)
 and (c) of the Commercial Computer Software - Restricted
 Rights clause in FAR 52.227-19.
  
 Gaussian, Inc.
 340 Quinnipiac St., Bldg. 40, Wallingford CT 06492
  
  
 ---------------------------------------------------------------
 Warning -- This program may not be used in any manner that
 competes with the business of Gaussian, Inc. or will provide
 assistance to any competitor of Gaussian, Inc.  The licensee
 of this program is prohibited from giving any competitor of
 Gaussian, Inc. access to this program.  By using this program,
 the user acknowledges that Gaussian, Inc. is engaged in the
 business of creating and licensing software in the field of
 computational chemistry and represents and warrants to the
 licensee that it is not a competitor of Gaussian, Inc. and that
 it will not use this program in any manner prohibited above.
 ---------------------------------------------------------------
  

 Cite this work as:
 Gaussian 09, Revision B.01,
 M. J. Frisch, G. W. Trucks, H. B. Schlegel, G. E. Scuseria, 
 M. A. Robb, J. R. Cheeseman, G. Scalmani, V. Barone, B. Mennucci, 
 G. A. Petersson, H. Nakatsuji, M. Caricato, X. Li, H. P. Hratchian, 
 A. F. Izmaylov, J. Bloino, G. Zheng, J. L. Sonnenberg, M. Hada, 
 M. Ehara, K. Toyota, R. Fukuda, J. Hasegawa, M. Ishida, T. Nakajima, 
 Y. Honda, O. Kitao, H. Nakai, T. Vreven, J. A. Montgomery, Jr., 
 J. E. Peralta, F. Ogliaro, M. Bearpark, J. J. Heyd, E. Brothers, 
 K. N. Kudin, V. N. Staroverov, T. Keith, R. Kobayashi, J. Normand, 
 K. Raghavachari, A. Rendell, J. C. Burant, S. S. Iyengar, J. Tomasi, 
 M. Cossi, N. Rega, J. M. Millam, M. Klene, J. E. Knox, J. B. Cross, 
 V. Bakken, C. Adamo, J. Jaramillo, R. Gomperts, R. E. Stratmann, 
 O. Yazyev, A. J. Austin, R. Cammi, C. Pomelli, J. W. Ochterski, 
 R. L. Martin, K. Morokuma, V. G. Zakrzewski, G. A. Voth, 
 P. Salvador, J. J. Dannenberg, S. Dapprich, A. D. Daniels, 
 O. Farkas, J. B. Foresman, J. V. Ortiz, J. Cioslowski, 
 and D. J. Fox, Gaussian, Inc., Wallingford CT, 2010.
 
 ******************************************
 Gaussian 09:  EM64L-G09RevB.01 12-Aug-2010
                23-Dec-2018 
 ******************************************
 %chk=4-HOOC-C6H3-IRC.chk
 %mem=500MW
 %nproc=7
 Will use up to    7 processors via shared memory.
 ----------------------------------------------------------------------
 # rb3lyp/aug-cc-pVDZ irc=(calcfc,maxcycle=1000,maxpoints=10000,stepsiz
 e=1) scf=(xqc,maxcycle=1000) nosymm
 ----------------------------------------------------------------------
 1/6=1000,10=4,14=-1,18=10,26=3,38=1,39=1,42=10000,44=3/1,23;
 2/12=2,15=1,17=6,18=5,29=1,40=1/2;
 3/5=16,7=10,11=2,16=1,25=1,30=1,71=2,74=-5,116=1/1,2,3;
 4//1;
 5/5=2,7=1000,8=3,13=1,38=5/2,8;
 8/6=4,10=90,11=11/1;
 11/6=1,8=1,9=11,15=111,16=1,31=1/1,2,10;
 10/6=1,7=6,13=1,31=1/2;
 6/7=2,8=2,9=2,10=2,28=1/1;
 7/10=1,18=20,25=1,30=1/1,2,3,16;
 1/6=1000,10=4,14=-1,18=10,39=1,42=10000,44=3/23(3);
 2/15=1,29=1/2;
 7/9=1,25=1,30=1,44=-1/16;
 99/5=20/99;
 2/15=1,29=1/2;
 3/5=16,7=10,11=2,16=1,25=1,30=1,71=2,74=-5,116=1/1,2,3;
 4/5=5,16=3/1;
 5/5=2,7=1000,8=3,13=1,38=5/2,8;
 8/6=4,10=90,11=11/1;
 11/6=1,8=1,9=11,15=111,16=1,31=1/1,2,10;
 10/6=1,7=6,13=1,31=1/2;
 7/10=1,18=20,25=1,30=1/1,2,3,16;
 1/6=1000,14=-1,18=10,39=1,42=10000,44=3/23(-8);
 2/15=1,29=1/2;
 6/7=2,8=2,9=2,10=2,19=2,28=1/1;
 7/9=1,25=1,30=1,44=-1/16;
 99/5=20,9=1/99;
 -----------
 4-HOOC-C6H3
 -----------
 Symbolic Z-matrix:
 Charge =  0 Multiplicity = 1
 C                     0.20822  -1.24339   0. 
 C                    -1.21416  -1.23568   0. 
 C                    -1.67294   0.02603   0. 
 C                    -1.06415   1.28451   0. 
 C                     0.3224    1.21588   0. 
 C                     0.95598  -0.0538    0. 
 H                     0.76025  -2.18486   0. 
 H                    -1.61022   2.22805   0. 
 H                     0.91774   2.12527   0. 
 N                    -3.25767   0.07993   0. 
 N                    -4.33115  -0.21206   0. 
 C                     2.44727  -0.15825   0. 
 O                     3.07431  -1.19607   0. 
 O                     3.06784   1.05513   0. 
 H                     4.02105   0.87215   0. 
 
 IRC-IRC-IRC-IRC-IRC-IRC-IRC-IRC-IRC-IRC-IRC-IRC-IRC-IRC-IRC-IRC-IRC-IRC
 ------------------------------------------------------------------------
 INPUT DATA FOR L123
 ------------------------------------------------------------------------
 GENERAL PARAMETERS:
 Follow reaction path in both directions.
 Maximum points per path      =****
 Step size                    =   0.010 bohr
 Integration scheme           = HPC                                 
    Redo corrector integration= Yes                                 
    Max correction cycles     =1000
 Initial Hessian              = CalcFC
 Hessian eveluation           = All updating
    Hessian updating method   = Bofill                              
 ------------------------------------------------------------------------
 IRC-IRC-IRC-IRC-IRC-IRC-IRC-IRC-IRC-IRC-IRC-IRC-IRC-IRC-IRC-IRC-IRC-IRC
                          Input orientation:                          
 ---------------------------------------------------------------------
 Center     Atomic      Atomic             Coordinates (Angstroms)
 Number     Number       Type             X           Y           Z
 ---------------------------------------------------------------------
      1          6           0        0.208220   -1.243390    0.000000
      2          6           0       -1.214160   -1.235680    0.000000
      3          6           0       -1.672940    0.026030    0.000000
      4          6           0       -1.064150    1.284510    0.000000
      5          6           0        0.322400    1.215880    0.000000
      6          6           0        0.955980   -0.053800    0.000000
      7          1           0        0.760250   -2.184860    0.000000
      8          1           0       -1.610220    2.228050    0.000000
      9          1           0        0.917740    2.125270    0.000000
     10          7           0       -3.257670    0.079930    0.000000
     11          7           0       -4.331150   -0.212060    0.000000
     12          6           0        2.447270   -0.158250    0.000000
     13          8           0        3.074310   -1.196070    0.000000
     14          8           0        3.067840    1.055130    0.000000
     15          1           0        4.021050    0.872150    0.000000
 ---------------------------------------------------------------------
                    Distance matrix (angstroms):
                    1          2          3          4          5
     1  C    0.000000
     2  C    1.422401   0.000000
     3  C    2.269403   1.342532   0.000000
     4  C    2.830054   2.524651   1.397998   0.000000
     5  C    2.461919   2.893296   2.323171   1.388247   0.000000
     6  C    1.405087   2.471103   2.630132   2.423221   1.418982
     7  H    1.091377   2.190716   3.287620   3.919817   3.428811
     8  H    3.918880   3.486300   2.202913   1.090165   2.181630
     9  H    3.442570   3.980073   3.334431   2.152851   1.086931
    10  N    3.709928   2.430383   1.585646   2.502507   3.755966
    11  N    4.655053   3.280766   2.668851   3.593468   4.867704
    12  C    2.488147   3.816664   4.124329   3.796265   2.530475
    13  O    2.866481   4.288653   4.902031   4.824949   3.659305
    14  O    3.668872   4.856268   4.851190   4.138352   2.750142
    15  H    4.360411   5.643613   5.756513   5.101892   3.714588
                    6          7          8          9         10
     6  C    0.000000
     7  H    2.140030   0.000000
     8  H    3.433980   5.009282   0.000000
     9  H    2.179406   4.313006   2.530049   0.000000
    10  N    4.215772   4.612261   2.707122   4.649459   0.000000
    11  N    5.289498   5.460247   3.654805   5.745777   1.112483
    12  C    1.494943   2.636889   4.707192   2.748441   5.709910
    13  O    2.406679   2.516462   5.802536   3.960062   6.459268
    14  O    2.385305   3.977751   4.822861   2.401693   6.400242
    15  H    3.201880   4.469690   5.792207   3.346766   7.321706
                   11         12         13         14         15
    11  N    0.000000
    12  C    6.778634   0.000000
    13  O    7.470550   1.212538   0.000000
    14  O    7.506719   1.362864   2.251209   0.000000
    15  H    8.422277   1.881092   2.274610   0.970614   0.000000
 Symmetry turned off by external request.
 Stoichiometry    C7H4N2O2
 Framework group  CS[SG(C7H4N2O2)]
 Deg. of freedom    27
 Full point group                 CS      NOp   2
 Rotational constants (GHZ):      3.8508606      0.5725415      0.4984348
 Standard basis: Aug-CC-pVDZ (5D, 7F)
 Integral buffers will be    131072 words long.
 Raffenetti 2 integral format.
 Two-electron integral symmetry is turned off.
   289 basis functions,   517 primitive gaussians,   311 cartesian basis functions
    38 alpha electrons       38 beta electrons
       nuclear repulsion energy       519.9328277170 Hartrees.
 NAtoms=   15 NActive=   15 NUniq=   15 SFac= 1.00D+00 NAtFMM=   50 NAOKFM=F Big=F
 One-electron integrals computed using PRISM.
 NBasis=   289 RedAO= T  NBF=   289
 NBsUse=   289 1.00D-06 NBFU=   289
 Harris functional with IExCor=  402 diagonalized for initial guess.
 ExpMin= 2.97D-02 ExpMax= 1.17D+04 ExpMxC= 4.01D+02 IAcc=3 IRadAn=         0 AccDes= 0.00D+00
 HarFok:  IExCor=  402 AccDes= 0.00D+00 IRadAn=         0 IDoV= 1
 ScaDFX=  1.000000  1.000000  1.000000  1.000000
 FoFCou: FMM=F IPFlag=           0 FMFlag=      100000 FMFlg1=           0
         NFxFlg=           0 DoJE=T BraDBF=F KetDBF=T FulRan=T
         Omega=  0.000000  0.000000  1.000000  0.000000  0.000000 ICntrl=     500 IOpCl=  0
         NMat0=    1 NMatS0=    1 NMatT0=    0 NMatD0=    1 NMtDS0=    0 NMtDT0=    0
         I1Cent=           4 NGrid=           0.
 Symmetry not used in FoFCou.
 Requested convergence on RMS density matrix=1.00D-08 within 128 cycles.
 Requested convergence on MAX density matrix=1.00D-06.
 Requested convergence on             energy=1.00D-06.
 No special actions if energy rises.
 EnCoef did     2 forward-backward iterations
 EnCoef did     2 forward-backward iterations
 SCF Done:  E(RB3LYP) =  -529.043817945     A.U. after   19 cycles
             Convg  =    0.3082D-08             -V/T =  2.0061
 QCSCF skips out because SCF is already converged.
 Range of M.O.s used for correlation:     1   289
 NBasis=   289 NAE=    38 NBE=    38 NFC=     0 NFV=     0
 NROrb=    289 NOA=    38 NOB=    38 NVA=   251 NVB=   251

 **** Warning!!: The largest alpha MO coefficient is  0.84559891D+02

 Symmetrizing basis deriv contribution to polar:
 IMax=3 JMax=2 DiffMx= 0.00D+00
 G2DrvN: will do    16 centers at a time, making    1 passes doing MaxLOS=2.
 Calling FoFCou, ICntrl=  3107 FMM=F I1Cent=   0 AccDes= 0.00D+00.
 FoFDir/FoFCou used for L=0 through L=2.
 End of G2Drv Frequency-dependent properties file   721 does not exist.
 End of G2Drv Frequency-dependent properties file   722 does not exist.
          IDoAtm=111111111111111
          Differentiating once with respect to nuclear coordinates.
          There are    48 degrees of freedom in the 1st order CPHF.  IDoFFX=5.
     42 vectors produced by pass  0 Test12= 1.99D-10 2.08D-07 XBig12= 9.33D-01 3.27D-01.
 AX will form    42 AO Fock derivatives at one time.
     42 vectors produced by pass  1 Test12= 1.99D-10 2.08D-07 XBig12= 4.23D-01 3.05D-01.
     42 vectors produced by pass  2 Test12= 1.99D-10 2.08D-07 XBig12= 5.89D-03 1.18D-02.
     42 vectors produced by pass  3 Test12= 1.99D-10 2.08D-07 XBig12= 1.05D-04 1.37D-03.
     42 vectors produced by pass  4 Test12= 1.99D-10 2.08D-07 XBig12= 3.01D-07 8.49D-05.
     18 vectors produced by pass  5 Test12= 1.99D-10 2.08D-07 XBig12= 6.81D-10 3.03D-06.
      1 vectors produced by pass  6 Test12= 1.99D-10 2.08D-07 XBig12= 3.19D-12 2.52D-07.
 Inverted reduced A of dimension   229 with in-core refinement.
 End of Minotr Frequency-dependent properties file   721 does not exist.
 End of Minotr Frequency-dependent properties file   722 does not exist.

 **********************************************************************

            Population analysis using the SCF density.

 **********************************************************************

 Alpha  occ. eigenvalues --  -19.20603 -19.14844 -14.53107 -14.50497 -10.33193
 Alpha  occ. eigenvalues --  -10.27786 -10.23255 -10.22509 -10.21974 -10.21119
 Alpha  occ. eigenvalues --  -10.17151  -1.19350  -1.12105  -1.03119  -0.89800
 Alpha  occ. eigenvalues --   -0.81808  -0.77101  -0.72101  -0.64003  -0.63392
 Alpha  occ. eigenvalues --   -0.57673  -0.54544  -0.53804  -0.52611  -0.51757
 Alpha  occ. eigenvalues --   -0.49889  -0.46813  -0.46332  -0.46021  -0.42315
 Alpha  occ. eigenvalues --   -0.41785  -0.39369  -0.37786  -0.33806  -0.29486
 Alpha  occ. eigenvalues --   -0.29014  -0.27094  -0.21619
 Alpha virt. eigenvalues --   -0.11286  -0.11022  -0.04881  -0.03268  -0.02030
 Alpha virt. eigenvalues --   -0.00844   0.01311   0.02137   0.03185   0.03255
 Alpha virt. eigenvalues --    0.03688   0.04657   0.05638   0.05854   0.05891
 Alpha virt. eigenvalues --    0.07212   0.07922   0.08007   0.08394   0.08792
 Alpha virt. eigenvalues --    0.09161   0.10345   0.10525   0.11539   0.12013
 Alpha virt. eigenvalues --    0.12015   0.12270   0.12902   0.13587   0.13665
 Alpha virt. eigenvalues --    0.15743   0.16188   0.16657   0.16932   0.17895
 Alpha virt. eigenvalues --    0.18113   0.18823   0.19207   0.19535   0.20566
 Alpha virt. eigenvalues --    0.20628   0.21377   0.21935   0.22271   0.22891
 Alpha virt. eigenvalues --    0.23617   0.23987   0.24025   0.24485   0.25636
 Alpha virt. eigenvalues --    0.26608   0.27208   0.27445   0.28204   0.28584
 Alpha virt. eigenvalues --    0.29342   0.29584   0.30788   0.31672   0.31734
 Alpha virt. eigenvalues --    0.32613   0.32960   0.33408   0.34277   0.36292
 Alpha virt. eigenvalues --    0.37597   0.37767   0.38157   0.38498   0.39096
 Alpha virt. eigenvalues --    0.40205   0.41914   0.43161   0.45223   0.45556
 Alpha virt. eigenvalues --    0.46651   0.47713   0.48493   0.49719   0.50593
 Alpha virt. eigenvalues --    0.50868   0.51704   0.52631   0.53681   0.54161
 Alpha virt. eigenvalues --    0.54299   0.55209   0.56159   0.56376   0.57054
 Alpha virt. eigenvalues --    0.57200   0.57904   0.58582   0.60914   0.61161
 Alpha virt. eigenvalues --    0.61880   0.62599   0.63414   0.64083   0.65008
 Alpha virt. eigenvalues --    0.65395   0.68820   0.69276   0.70066   0.70785
 Alpha virt. eigenvalues --    0.71202   0.71465   0.71584   0.73060   0.73319
 Alpha virt. eigenvalues --    0.73831   0.73868   0.74948   0.75464   0.76754
 Alpha virt. eigenvalues --    0.77266   0.79280   0.79712   0.81072   0.82316
 Alpha virt. eigenvalues --    0.82751   0.84264   0.85188   0.86443   0.86977
 Alpha virt. eigenvalues --    0.87960   0.88786   0.88985   0.90159   0.93849
 Alpha virt. eigenvalues --    0.94064   0.96440   0.97840   0.99717   1.01292
 Alpha virt. eigenvalues --    1.01571   1.05165   1.06904   1.07039   1.09225
 Alpha virt. eigenvalues --    1.10429   1.11182   1.14177   1.15098   1.15723
 Alpha virt. eigenvalues --    1.18495   1.18806   1.20962   1.23792   1.24845
 Alpha virt. eigenvalues --    1.26570   1.27165   1.27542   1.29569   1.30626
 Alpha virt. eigenvalues --    1.32178   1.36093   1.37275   1.38856   1.39798
 Alpha virt. eigenvalues --    1.40589   1.43708   1.44387   1.45904   1.47429
 Alpha virt. eigenvalues --    1.48736   1.49671   1.51576   1.51839   1.53335
 Alpha virt. eigenvalues --    1.54584   1.55030   1.56061   1.58214   1.60431
 Alpha virt. eigenvalues --    1.60466   1.63330   1.65245   1.67105   1.68219
 Alpha virt. eigenvalues --    1.68467   1.70928   1.72203   1.73571   1.75020
 Alpha virt. eigenvalues --    1.78525   1.80793   1.82262   1.85719   1.87125
 Alpha virt. eigenvalues --    1.89068   1.89222   1.90065   1.92442   1.93248
 Alpha virt. eigenvalues --    1.96178   1.96326   1.99820   2.00862   2.01508
 Alpha virt. eigenvalues --    2.03640   2.04576   2.06163   2.09426   2.09853
 Alpha virt. eigenvalues --    2.11338   2.12626   2.16352   2.18680   2.20941
 Alpha virt. eigenvalues --    2.21811   2.23383   2.24834   2.26206   2.29577
 Alpha virt. eigenvalues --    2.30472   2.32654   2.34733   2.39369   2.41715
 Alpha virt. eigenvalues --    2.47787   2.54407   2.58710   2.62273   2.68672
 Alpha virt. eigenvalues --    2.70025   2.75297   2.77704   2.82778   2.85986
 Alpha virt. eigenvalues --    2.89142   2.89561   2.99215   3.01519   3.04000
 Alpha virt. eigenvalues --    3.11047   3.13828   3.21284   3.29611   3.33409
 Alpha virt. eigenvalues --    3.35402   3.37180   3.40249   3.41579   3.42868
 Alpha virt. eigenvalues --    3.49890   3.52881   3.67459   3.74611   3.93949
 Alpha virt. eigenvalues --    3.96324
          Condensed to atoms (all electrons):
              1          2          3          4          5          6
     1  C   14.928231   0.316283  -0.361106  -1.663792  -2.821687  -2.348456
     2  C    0.316283  11.708028   0.121491  -1.311489  -1.625363  -1.246346
     3  C   -0.361106   0.121491  11.401853  -4.092252   0.482075  -2.746538
     4  C   -1.663792  -1.311489  -4.092252  19.179070  -5.201400  -0.012903
     5  C   -2.821687  -1.625363   0.482075  -5.201400  22.141813  -4.693339
     6  C   -2.348456  -1.246346  -2.746538  -0.012903  -4.693339  17.586523
     7  H   -1.009512  -0.103458  -0.117237  -0.043600   0.231299  -0.035145
     8  H    0.137577   0.055583   1.387626  -2.309941   0.854862  -0.726130
     9  H    0.221173   0.051895  -0.684884   0.888660  -2.656586   1.270545
    10  N    0.002517  -0.257371   0.189571   0.223980  -0.187654  -0.002674
    11  N   -0.131582   0.129218  -0.283529  -0.193183  -0.019926   0.087209
    12  C   -1.547807   0.038033  -0.141570  -0.188581  -1.981813  -3.453937
    13  O   -0.011569  -0.059452  -0.011436   0.000677  -0.110505   0.318894
    14  O   -0.151145  -0.038258  -0.000934  -0.102256   0.307672   0.193993
    15  H   -0.049350  -0.004677   0.006930   0.004289   0.049716   0.077511
              7          8          9         10         11         12
     1  C   -1.009512   0.137577   0.221173   0.002517  -0.131582  -1.547807
     2  C   -0.103458   0.055583   0.051895  -0.257371   0.129218   0.038033
     3  C   -0.117237   1.387626  -0.684884   0.189571  -0.283529  -0.141570
     4  C   -0.043600  -2.309941   0.888660   0.223980  -0.193183  -0.188581
     5  C    0.231299   0.854862  -2.656586  -0.187654  -0.019926  -1.981813
     6  C   -0.035145  -0.726130   1.270545  -0.002674   0.087209  -3.453937
     7  H    2.940143   0.003251  -0.017726  -0.007024   0.006362   0.170120
     8  H    0.003251   2.739560  -0.245924  -0.103775  -0.013086   0.019890
     9  H   -0.017726  -0.245924   3.303970  -0.006114  -0.001288  -0.093720
    10  N   -0.007024  -0.103775  -0.006114   8.078539  -1.427683   0.014840
    11  N    0.006362  -0.013086  -0.001288  -1.427683   9.573996   0.010494
    12  C    0.170120   0.019890  -0.093720   0.014840   0.010494  13.222401
    13  O   -0.118708  -0.000435   0.019852  -0.001161  -0.000225   0.021844
    14  O   -0.009941  -0.002572  -0.105029   0.000300   0.000127  -0.356143
    15  H    0.004152   0.000829  -0.003345  -0.000013  -0.000002  -0.133121
             13         14         15
     1  C   -0.011569  -0.151145  -0.049350
     2  C   -0.059452  -0.038258  -0.004677
     3  C   -0.011436  -0.000934   0.006930
     4  C    0.000677  -0.102256   0.004289
     5  C   -0.110505   0.307672   0.049716
     6  C    0.318894   0.193993   0.077511
     7  H   -0.118708  -0.009941   0.004152
     8  H   -0.000435  -0.002572   0.000829
     9  H    0.019852  -0.105029  -0.003345
    10  N   -0.001161   0.000300  -0.000013
    11  N   -0.000225   0.000127  -0.000002
    12  C    0.021844  -0.356143  -0.133121
    13  O    8.503088   0.016405  -0.023949
    14  O    0.016405   8.584887   0.248828
    15  H   -0.023949   0.248828   0.557464
 Mulliken atomic charges:
              1
     1  C    0.490225
     2  C   -1.774116
     3  C    0.849939
     4  C    0.822720
     5  C    1.230837
     6  C    1.730793
     7  H   -0.892973
     8  H   -0.797316
     9  H   -0.941479
    10  N    0.483723
    11  N   -0.736904
    12  C    0.399069
    13  O   -0.543321
    14  O   -0.585933
    15  H    0.264738
 Sum of Mulliken atomic charges =   0.00000
 Mulliken charges with hydrogens summed into heavy atoms:
              1
     1  C   -0.402748
     2  C   -1.774116
     3  C    0.849939
     4  C    0.025405
     5  C    0.289357
     6  C    1.730793
    10  N    0.483723
    11  N   -0.736904
    12  C    0.399069
    13  O   -0.543321
    14  O   -0.321196
 Sum of Mulliken charges with hydrogens summed into heavy atoms =   0.00000
 APT atomic charges:
              1
     1  C   -0.364305
     2  C   -0.096181
     3  C    0.235817
     4  C    0.285153
     5  C    0.362421
     6  C    1.668729
     7  H   -0.259451
     8  H   -0.243188
     9  H   -0.262652
    10  N   -1.755222
    11  N    1.296567
    12  C   -0.873004
    13  O    0.217043
    14  O   -1.200289
    15  H    0.988560
 Sum of APT charges=   0.00000
 APT Atomic charges with hydrogens summed into heavy atoms:
              1
     1  C   -0.623755
     2  C   -0.096181
     3  C    0.235817
     4  C    0.041965
     5  C    0.099768
     6  C    1.668729
     7  H    0.000000
     8  H    0.000000
     9  H    0.000000
    10  N   -1.755222
    11  N    1.296567
    12  C   -0.873004
    13  O    0.217043
    14  O   -0.211729
    15  H    0.000000
 Sum of APT charges=   0.00000
 Electronic spatial extent (au):  <R**2>=           2008.5491
 Charge=              0.0000 electrons
 Dipole moment (field-independent basis, Debye):
    X=             -2.1465    Y=              4.4887    Z=              0.0000  Tot=              4.9755
 Quadrupole moment (field-independent basis, Debye-Ang):
   XX=            -52.5856   YY=            -66.2883   ZZ=            -63.2976
   XY=              0.2770   XZ=              0.0000   YZ=              0.0000
 Traceless Quadrupole moment (field-independent basis, Debye-Ang):
   XX=              8.1382   YY=             -5.5644   ZZ=             -2.5738
   XY=              0.2770   XZ=              0.0000   YZ=              0.0000
 Octapole moment (field-independent basis, Debye-Ang**2):
  XXX=             11.9988  YYY=             21.2330  ZZZ=              0.0000  XYY=              0.6562
  XXY=             40.3729  XXZ=              0.0000  XZZ=              4.6126  YZZ=              0.7086
  YYZ=              0.0000  XYZ=              0.0000
 Hexadecapole moment (field-independent basis, Debye-Ang**3):
 XXXX=          -1866.1603 YYYY=           -424.6571 ZZZZ=            -68.1737 XXXY=             86.2661
 XXXZ=              0.0000 YYYX=            -23.7701 YYYZ=              0.0000 ZZZX=              0.0000
 ZZZY=              0.0000 XXYY=           -454.3050 XXZZ=           -353.5563 YYZZ=            -88.1384
 XXYZ=              0.0000 YYXZ=              0.0000 ZZXY=             -2.5160
 N-N= 5.199328277170D+02 E-N=-2.273917275711D+03  KE= 5.258347202656D+02
  Exact polarizability:   0.000   0.000   0.000   0.000   0.000   0.000
 Approx polarizability: 292.087 -24.686 208.940   0.000   0.000  93.511
 Calling FoFJK, ICntrl=    100147 FMM=F ISym2X=0 I1Cent= 0 IOpClX= 0 NMat=1 NMatS=1 NMatT=0.
 -------------------------------------------------------------------
 Center     Atomic                   Forces (Hartrees/Bohr)
 Number     Number              X              Y              Z
 -------------------------------------------------------------------
      1        6           0.000004273   -0.000000006    0.000000000
      2        6          -0.000001064    0.000000970    0.000000000
      3        6          -0.000001327   -0.000008741    0.000000000
      4        6           0.000001714    0.000001597    0.000000000
      5        6           0.000004008    0.000000291    0.000000000
      6        6          -0.000001933   -0.000001305    0.000000000
      7        1           0.000003684    0.000003197    0.000000000
      8        1          -0.000005119   -0.000002251    0.000000000
      9        1          -0.000005949   -0.000000435    0.000000000
     10        7          -0.000005186   -0.000008566    0.000000000
     11        7           0.000007339   -0.000006513    0.000000000
     12        6          -0.000001013    0.000009413    0.000000000
     13        8           0.000003964    0.000002597    0.000000000
     14        8          -0.000010265    0.000004810    0.000000000
     15        1           0.000006874    0.000004943    0.000000000
 -------------------------------------------------------------------
 Cartesian Forces:  Max     0.000010265 RMS     0.000004014
 IRC-IRC-IRC-IRC-IRC-IRC-IRC-IRC-IRC-IRC-IRC-IRC-IRC-IRC-IRC-IRC-IRC-IRC
          ******** Start new reaction path calculation ********
 Supplied step size of   0.0100 bohr.
    Integration on MW PES will use step size of   0.0358 sqrt(amu)*bohr.
 Point Number:   0          Path Number:   1
 Calculating another point on the path.
 IRC-IRC-IRC-IRC-IRC-IRC-IRC-IRC-IRC-IRC-IRC-IRC-IRC-IRC-IRC-IRC-IRC-IRC
                          Input orientation:                          
 ---------------------------------------------------------------------
 Center     Atomic      Atomic             Coordinates (Angstroms)
 Number     Number       Type             X           Y           Z
 ---------------------------------------------------------------------
      1          6           0        0.236554   -1.223416    0.000000
      2          6           0       -1.185561   -1.214673    0.000000
      3          6           0       -1.642588    0.045943    0.000000
      4          6           0       -1.036092    1.304742    0.000000
      5          6           0        0.350652    1.236129    0.000000
      6          6           0        0.984101   -0.033455    0.000000
      7          1           0        0.788617   -2.164841    0.000000
      8          1           0       -1.582821    2.247863    0.000000
      9          1           0        0.945974    2.145532    0.000000
     10          7           0       -3.232895    0.102214    0.000000
     11          7           0       -4.305249   -0.192996    0.000000
     12          6           0        2.475193   -0.137885    0.000000
     13          8           0        3.102240   -1.175718    0.000000
     14          8           0        3.095760    1.075507    0.000000
     15          1           0        4.048962    0.892512    0.000000
 ---------------------------------------------------------------------
                    Distance matrix (angstroms):
                    1          2          3          4          5
     1  C    0.000000
     2  C    1.422141   0.000000
     3  C    2.267696   1.340905   0.000000
     4  C    2.830408   2.523845   1.397287   0.000000
     5  C    2.462190   2.892469   2.321540   1.388440   0.000000
     6  C    1.405288   2.470366   2.627888   2.423210   1.418837
     7  H    1.091355   2.190935   3.286080   3.920149   3.429054
     8  H    3.919171   3.485250   2.202731   1.090133   2.182183
     9  H    3.442831   3.979248   3.333005   2.153024   1.086932
    10  N    3.714077   2.434290   1.591303   2.504399   3.758666
    11  N    4.657224   3.282724   2.673361   3.595915   4.870299
    12  C    2.487948   3.815834   4.121882   3.796089   2.530136
    13  O    2.866083   4.287977   4.899576   4.824777   3.658995
    14  O    3.668802   4.855371   4.848911   4.138205   2.749803
    15  H    4.360231   5.642735   5.754165   5.101736   3.714239
                    6          7          8          9         10
     6  C    0.000000
     7  H    2.140333   0.000000
     8  H    3.434166   5.009559   0.000000
     9  H    2.179320   4.313244   2.530865   0.000000
    10  N    4.219177   4.616503   2.706761   4.651676   0.000000
    11  N    5.291755   5.462202   3.656420   5.748396   1.112247
    12  C    1.494745   2.636871   4.707363   2.748181   5.713135
    13  O    2.406508   2.516191   5.802646   3.959821   6.462743
    14  O    2.385141   3.977784   4.823229   2.401360   6.403059
    15  H    3.201685   4.469593   5.792578   3.346430   7.324617
                   11         12         13         14         15
    11  N    0.000000
    12  C    6.780666   0.000000
    13  O    7.472392   1.212554   0.000000
    14  O    7.508930   1.362873   2.251235   0.000000
    15  H    8.424439   1.881081   2.274612   0.970609   0.000000
 Symmetry turned off by external request.
 Stoichiometry    C7H4N2O2
 Framework group  CS[SG(C7H4N2O2)]
 Deg. of freedom    27
 Full point group                 CS      NOp   2
 Rotational constants (GHZ):      3.8509611      0.5722671      0.4982285
 Standard basis: Aug-CC-pVDZ (5D, 7F)
 Integral buffers will be    131072 words long.
 Raffenetti 2 integral format.
 Two-electron integral symmetry is turned off.
   289 basis functions,   517 primitive gaussians,   311 cartesian basis functions
    38 alpha electrons       38 beta electrons
       nuclear repulsion energy       519.8780343459 Hartrees.
 NAtoms=   15 NActive=   15 NUniq=   15 SFac= 1.00D+00 NAtFMM=   50 NAOKFM=F Big=F
 One-electron integrals computed using PRISM.
 NBasis=   289 RedAO= T  NBF=   289
 NBsUse=   289 1.00D-06 NBFU=   289
 Initial guess read from the read-write file.
 B after Tr=     0.000000    0.000000    0.000000
         Rot=    1.000000    0.000000    0.000000    0.000000 Ang=   0.00 deg.
 Harris functional with IExCor=  402 diagonalized for initial guess.
 ExpMin= 2.97D-02 ExpMax= 1.17D+04 ExpMxC= 4.01D+02 IAcc=3 IRadAn=         0 AccDes= 0.00D+00
 HarFok:  IExCor=  402 AccDes= 0.00D+00 IRadAn=         0 IDoV= 1
 ScaDFX=  1.000000  1.000000  1.000000  1.000000
 FoFCou: FMM=F IPFlag=           0 FMFlag=      100000 FMFlg1=           0
         NFxFlg=           0 DoJE=T BraDBF=F KetDBF=T FulRan=T
         Omega=  0.000000  0.000000  1.000000  0.000000  0.000000 ICntrl=     500 IOpCl=  0
         NMat0=    1 NMatS0=    1 NMatT0=    0 NMatD0=    1 NMtDS0=    0 NMtDT0=    0
         I1Cent=           4 NGrid=           0.
 Symmetry not used in FoFCou.
 Requested convergence on RMS density matrix=1.00D-08 within 128 cycles.
 Requested convergence on MAX density matrix=1.00D-06.
 Requested convergence on             energy=1.00D-06.
 No special actions if energy rises.
 SCF Done:  E(RB3LYP) =  -529.043822384     A.U. after   12 cycles
             Convg  =    0.7440D-08             -V/T =  2.0061
 QCSCF skips out because SCF is already converged.
 Range of M.O.s used for correlation:     1   289
 NBasis=   289 NAE=    38 NBE=    38 NFC=     0 NFV=     0
 NROrb=    289 NOA=    38 NOB=    38 NVA=   251 NVB=   251

 **** Warning!!: The largest alpha MO coefficient is  0.84271665D+02

 Symmetrizing basis deriv contribution to polar:
 IMax=3 JMax=2 DiffMx= 0.00D+00
 Calling FoFJK, ICntrl=      2147 FMM=F ISym2X=0 I1Cent= 0 IOpClX= 0 NMat=1 NMatS=1 NMatT=0.
 -------------------------------------------------------------------
 Center     Atomic                   Forces (Hartrees/Bohr)
 Number     Number              X              Y              Z
 -------------------------------------------------------------------
      1        6           0.000065440   -0.000083701    0.000000000
      2        6           0.000140702    0.000085834    0.000000000
      3        6           0.000378326   -0.000058746    0.000000000
      4        6          -0.000044473    0.000006340    0.000000000
      5        6           0.000045008   -0.000023455    0.000000000
      6        6           0.000157193   -0.000035175    0.000000000
      7        1           0.000032858   -0.000027064    0.000000000
      8        1          -0.000031918    0.000005058    0.000000000
      9        1           0.000009338    0.000002320    0.000000000
     10        7          -0.000603960    0.000338474    0.000000000
     11        7          -0.000504021   -0.000207938    0.000000000
     12        6           0.000247121   -0.000010540    0.000000000
     13        8           0.000035407    0.000024594    0.000000000
     14        8           0.000048043   -0.000017636    0.000000000
     15        1           0.000024938    0.000001634    0.000000000
 -------------------------------------------------------------------
 Cartesian Forces:  Max     0.000603960 RMS     0.000153580
 IRC-IRC-IRC-IRC-IRC-IRC-IRC-IRC-IRC-IRC-IRC-IRC-IRC-IRC-IRC-IRC-IRC-IRC
 Pt  1 Step number   1 out of a maximum of1000
 CORRECTOR INTEGRATION CONVERGENCE:
   Recorrection delta-x convergence threshold:    0.010000
   Delta-x Convergence Met
 Point Number:   1          Path Number:   1
   CHANGE IN THE REACTION COORDINATE =    0.03567
   NET REACTION COORDINATE UP TO THIS POINT =    0.03567
  # OF POINTS ALONG THE PATH =   1
  # OF STEPS =   1

 Calculating another point on the path.
 IRC-IRC-IRC-IRC-IRC-IRC-IRC-IRC-IRC-IRC-IRC-IRC-IRC-IRC-IRC-IRC-IRC-IRC
                          Input orientation:                          
 ---------------------------------------------------------------------
 Center     Atomic      Atomic             Coordinates (Angstroms)
 Number     Number       Type             X           Y           Z
 ---------------------------------------------------------------------
      1          6           0        0.237179   -1.223854    0.000000
      2          6           0       -1.184738   -1.214102    0.000000
      3          6           0       -1.640398    0.045447    0.000000
      4          6           0       -1.036196    1.304631    0.000000
      5          6           0        0.350894    1.235928    0.000000
      6          6           0        0.984731   -0.033522    0.000000
      7          1           0        0.789390   -2.165294    0.000000
      8          1           0       -1.583752    2.247303    0.000000
      9          1           0        0.946163    2.145416    0.000000
     10          7           0       -3.236089    0.103766    0.000000
     11          7           0       -4.307589   -0.193856    0.000000
     12          6           0        2.475948   -0.137855    0.000000
     13          8           0        3.102700   -1.175778    0.000000
     14          8           0        3.096261    1.075525    0.000000
     15          1           0        4.049555    0.892841    0.000000
 ---------------------------------------------------------------------
                    Distance matrix (angstroms):
                    1          2          3          4          5
     1  C    0.000000
     2  C    1.421951   0.000000
     3  C    2.266367   1.339436   0.000000
     4  C    2.831028   2.523110   1.396641   0.000000
     5  C    2.462408   2.891507   2.320019   1.388791   0.000000
     6  C    1.405604   2.469892   2.626317   2.423799   1.418891
     7  H    1.091443   2.191335   3.285003   3.920860   3.429371
     8  H    3.919785   3.484327   2.202585   1.090159   2.183057
     9  H    3.443056   3.978329   3.331691   2.153292   1.086974
    10  N    3.718355   2.438199   1.596756   2.506313   3.761414
    11  N    4.660023   3.285285   2.677905   3.598260   4.872961
    12  C    2.488268   3.815617   4.120425   3.796830   2.530441
    13  O    2.865924   4.287610   4.897792   4.825235   3.659065
    14  O    3.668990   4.854827   4.847370   4.138803   2.750048
    15  H    4.360574   5.642432   5.752707   5.102395   3.714539
                    6          7          8          9         10
     6  C    0.000000
     7  H    2.140703   0.000000
     8  H    3.435007   5.010271   0.000000
     9  H    2.179279   4.313559   2.531966   0.000000
    10  N    4.223052   4.620943   2.706467   4.653983   0.000000
    11  N    5.294748   5.464958   3.657669   5.751008   1.112066
    12  C    1.494862   2.637231   4.708518   2.748375   5.717145
    13  O    2.406354   2.516057   5.803474   3.959921   6.466643
    14  O    2.385066   3.978009   4.824477   2.401580   6.406478
    15  H    3.201764   4.469996   5.793852   3.346638   7.328250
                   11         12         13         14         15
    11  N    0.000000
    12  C    6.783768   0.000000
    13  O    7.475062   1.212478   0.000000
    14  O    7.511878   1.362747   2.251312   0.000000
    15  H    8.427500   1.881110   2.275021   0.970641   0.000000
 Symmetry turned off by external request.
 Stoichiometry    C7H4N2O2
 Framework group  CS[SG(C7H4N2O2)]
 Deg. of freedom    27
 Full point group                 CS      NOp   2
 Rotational constants (GHZ):      3.8510294      0.5718562      0.4979182
 Standard basis: Aug-CC-pVDZ (5D, 7F)
 Integral buffers will be    131072 words long.
 Raffenetti 2 integral format.
 Two-electron integral symmetry is turned off.
   289 basis functions,   517 primitive gaussians,   311 cartesian basis functions
    38 alpha electrons       38 beta electrons
       nuclear repulsion energy       519.7850768872 Hartrees.
 NAtoms=   15 NActive=   15 NUniq=   15 SFac= 1.00D+00 NAtFMM=   50 NAOKFM=F Big=F
 One-electron integrals computed using PRISM.
 NBasis=   289 RedAO= T  NBF=   289
 NBsUse=   289 1.00D-06 NBFU=   289
 Initial guess read from the read-write file.
 B after Tr=     0.000000    0.000000    0.000000
         Rot=    1.000000    0.000000    0.000000    0.000000 Ang=   0.00 deg.
 Harris functional with IExCor=  402 diagonalized for initial guess.
 ExpMin= 2.97D-02 ExpMax= 1.17D+04 ExpMxC= 4.01D+02 IAcc=3 IRadAn=         0 AccDes= 0.00D+00
 HarFok:  IExCor=  402 AccDes= 0.00D+00 IRadAn=         0 IDoV= 1
 ScaDFX=  1.000000  1.000000  1.000000  1.000000
 FoFCou: FMM=F IPFlag=           0 FMFlag=      100000 FMFlg1=           0
         NFxFlg=           0 DoJE=T BraDBF=F KetDBF=T FulRan=T
         Omega=  0.000000  0.000000  1.000000  0.000000  0.000000 ICntrl=     500 IOpCl=  0
         NMat0=    1 NMatS0=    1 NMatT0=    0 NMatD0=    1 NMtDS0=    0 NMtDT0=    0
         I1Cent=           4 NGrid=           0.
 Symmetry not used in FoFCou.
 Requested convergence on RMS density matrix=1.00D-08 within 128 cycles.
 Requested convergence on MAX density matrix=1.00D-06.
 Requested convergence on             energy=1.00D-06.
 No special actions if energy rises.
 SCF Done:  E(RB3LYP) =  -529.043835114     A.U. after   12 cycles
             Convg  =    0.6146D-08             -V/T =  2.0061
 QCSCF skips out because SCF is already converged.
 Range of M.O.s used for correlation:     1   289
 NBasis=   289 NAE=    38 NBE=    38 NFC=     0 NFV=     0
 NROrb=    289 NOA=    38 NOB=    38 NVA=   251 NVB=   251

 **** Warning!!: The largest alpha MO coefficient is  0.83830247D+02

 Symmetrizing basis deriv contribution to polar:
 IMax=3 JMax=2 DiffMx= 0.00D+00
 Calling FoFJK, ICntrl=      2147 FMM=F ISym2X=0 I1Cent= 0 IOpClX= 0 NMat=1 NMatS=1 NMatT=0.
 -------------------------------------------------------------------
 Center     Atomic                   Forces (Hartrees/Bohr)
 Number     Number              X              Y              Z
 -------------------------------------------------------------------
      1        6           0.000240226   -0.000123966    0.000000000
      2        6           0.000283469    0.000196688    0.000000000
      3        6           0.000808239   -0.000181726    0.000000000
      4        6           0.000105375   -0.000070827    0.000000000
      5        6           0.000144716   -0.000055857    0.000000000
      6        6           0.000075864    0.000008679    0.000000000
      7        1          -0.000012319    0.000017622    0.000000000
      8        1           0.000010418   -0.000023102    0.000000000
      9        1          -0.000001376   -0.000005900    0.000000000
     10        7          -0.001259040    0.000665967    0.000000000
     11        7          -0.000677182   -0.000419543    0.000000000
     12        6          -0.000042219    0.000017289    0.000000000
     13        8           0.000169592   -0.000051724    0.000000000
     14        8           0.000157229    0.000025166    0.000000000
     15        1          -0.000002992    0.000001235    0.000000000
 -------------------------------------------------------------------
 Cartesian Forces:  Max     0.001259040 RMS     0.000284711
 IRC-IRC-IRC-IRC-IRC-IRC-IRC-IRC-IRC-IRC-IRC-IRC-IRC-IRC-IRC-IRC-IRC-IRC
 Pt  2 Step number   1 out of a maximum of1000
 CORRECTOR INTEGRATION CONVERGENCE:
   Recorrection delta-x convergence threshold:    0.010000
   Delta-x Convergence Met
 Point Number:   2          Path Number:   1
   CHANGE IN THE REACTION COORDINATE =    0.03577
   NET REACTION COORDINATE UP TO THIS POINT =    0.07144
  # OF POINTS ALONG THE PATH =   2
  # OF STEPS =   1

 Calculating another point on the path.
 IRC-IRC-IRC-IRC-IRC-IRC-IRC-IRC-IRC-IRC-IRC-IRC-IRC-IRC-IRC-IRC-IRC-IRC
                          Input orientation:                          
 ---------------------------------------------------------------------
 Center     Atomic      Atomic             Coordinates (Angstroms)
 Number     Number       Type             X           Y           Z
 ---------------------------------------------------------------------
      1          6           0        0.237768   -1.224218    0.000000
      2          6           0       -1.183887   -1.213505    0.000000
      3          6           0       -1.637835    0.044939    0.000000
      4          6           0       -1.035874    1.304431    0.000000
      5          6           0        0.351374    1.235794    0.000000
      6          6           0        0.985041   -0.033528    0.000000
      7          1           0        0.789914   -2.165600    0.000000
      8          1           0       -1.583932    2.246752    0.000000
      9          1           0        0.946530    2.145342    0.000000
     10          7           0       -3.239147    0.105645    0.000000
     11          7           0       -4.309491   -0.195120    0.000000
     12          6           0        2.476018   -0.137869    0.000000
     13          8           0        3.102903   -1.175784    0.000000
     14          8           0        3.096454    1.075533    0.000000
     15          1           0        4.049706    0.892708    0.000000
 ---------------------------------------------------------------------
                    Distance matrix (angstroms):
                    1          2          3          4          5
     1  C    0.000000
     2  C    1.421695   0.000000
     3  C    2.264651   1.337815   0.000000
     4  C    2.831294   2.522283   1.395951   0.000000
     5  C    2.462634   2.890691   2.318424   1.388945   0.000000
     6  C    1.405759   2.469128   2.624050   2.423681   1.418701
     7  H    1.091360   2.191432   3.283359   3.921048   3.429548
     8  H    3.919977   3.483305   2.202473   1.090108   2.183448
     9  H    3.443295   3.977503   3.330261   2.153382   1.086963
    10  N    3.722563   2.442182   1.602462   2.508286   3.764184
    11  N    4.662253   3.287326   2.682420   3.600726   4.875570
    12  C    2.487954   3.814695   4.117913   3.796526   2.530032
    13  O    2.865544   4.286956   4.895381   4.825032   3.658773
    14  O    3.668915   4.853969   4.845164   4.138662   2.749753
    15  H    4.360304   5.641510   5.750377   5.102219   3.714211
                    6          7          8          9         10
     6  C    0.000000
     7  H    2.140983   0.000000
     8  H    3.435010   5.010389   0.000000
     9  H    2.179211   4.313787   2.532493   0.000000
    10  N    4.226480   4.625136   2.706303   4.656206   0.000000
    11  N    5.296998   5.466875   3.659428   5.753566   1.111799
    12  C    1.494623   2.637166   4.708461   2.748161   5.720350
    13  O    2.406260   2.515881   5.803462   3.959776   6.470213
    14  O    2.384970   3.978074   4.824703   2.401388   6.409408
    15  H    3.201575   4.469843   5.794075   3.346460   7.331224
                   11         12         13         14         15
    11  N    0.000000
    12  C    6.785751   0.000000
    13  O    7.476984   1.212539   0.000000
    14  O    7.514159   1.362822   2.251326   0.000000
    15  H    8.429683   1.881112   2.274884   0.970626   0.000000
 Symmetry turned off by external request.
 Stoichiometry    C7H4N2O2
 Framework group  CS[SG(C7H4N2O2)]
 Deg. of freedom    27
 Full point group                 CS      NOp   2
 Rotational constants (GHZ):      3.8512132      0.5715747      0.4977078
 Standard basis: Aug-CC-pVDZ (5D, 7F)
 Integral buffers will be    131072 words long.
 Raffenetti 2 integral format.
 Two-electron integral symmetry is turned off.
   289 basis functions,   517 primitive gaussians,   311 cartesian basis functions
    38 alpha electrons       38 beta electrons
       nuclear repulsion energy       519.7313067921 Hartrees.
 NAtoms=   15 NActive=   15 NUniq=   15 SFac= 1.00D+00 NAtFMM=   50 NAOKFM=F Big=F
 One-electron integrals computed using PRISM.
 NBasis=   289 RedAO= T  NBF=   289
 NBsUse=   289 1.00D-06 NBFU=   289
 Initial guess read from the read-write file.
 B after Tr=     0.000000    0.000000    0.000000
         Rot=    1.000000    0.000000    0.000000    0.000000 Ang=   0.00 deg.
 Harris functional with IExCor=  402 diagonalized for initial guess.
 ExpMin= 2.97D-02 ExpMax= 1.17D+04 ExpMxC= 4.01D+02 IAcc=3 IRadAn=         0 AccDes= 0.00D+00
 HarFok:  IExCor=  402 AccDes= 0.00D+00 IRadAn=         0 IDoV= 1
 ScaDFX=  1.000000  1.000000  1.000000  1.000000
 FoFCou: FMM=F IPFlag=           0 FMFlag=      100000 FMFlg1=           0
         NFxFlg=           0 DoJE=T BraDBF=F KetDBF=T FulRan=T
         Omega=  0.000000  0.000000  1.000000  0.000000  0.000000 ICntrl=     500 IOpCl=  0
         NMat0=    1 NMatS0=    1 NMatT0=    0 NMatD0=    1 NMtDS0=    0 NMtDT0=    0
         I1Cent=           4 NGrid=           0.
 Symmetry not used in FoFCou.
 Requested convergence on RMS density matrix=1.00D-08 within 128 cycles.
 Requested convergence on MAX density matrix=1.00D-06.
 Requested convergence on             energy=1.00D-06.
 No special actions if energy rises.
 SCF Done:  E(RB3LYP) =  -529.043857593     A.U. after   12 cycles
             Convg  =    0.7814D-08             -V/T =  2.0061
 QCSCF skips out because SCF is already converged.
 Range of M.O.s used for correlation:     1   289
 NBasis=   289 NAE=    38 NBE=    38 NFC=     0 NFV=     0
 NROrb=    289 NOA=    38 NOB=    38 NVA=   251 NVB=   251

 **** Warning!!: The largest alpha MO coefficient is  0.83576263D+02

 Symmetrizing basis deriv contribution to polar:
 IMax=3 JMax=2 DiffMx= 0.00D+00
 Calling FoFJK, ICntrl=      2147 FMM=F ISym2X=0 I1Cent= 0 IOpClX= 0 NMat=1 NMatS=1 NMatT=0.
 -------------------------------------------------------------------
 Center     Atomic                   Forces (Hartrees/Bohr)
 Number     Number              X              Y              Z
 -------------------------------------------------------------------
      1        6           0.000291739   -0.000195588    0.000000000
      2        6           0.000417625    0.000275052    0.000000000
      3        6           0.001231190   -0.000228165    0.000000000
      4        6           0.000122824   -0.000076237    0.000000000
      5        6           0.000209725   -0.000067117    0.000000000
      6        6           0.000183760   -0.000013689    0.000000000
      7        1           0.000027362   -0.000015899    0.000000000
      8        1          -0.000014720   -0.000028118    0.000000000
      9        1           0.000016903   -0.000005572    0.000000000
     10        7          -0.001774287    0.001040731    0.000000000
     11        7          -0.001085591   -0.000676250    0.000000000
     12        6           0.000086864    0.000002196    0.000000000
     13        8           0.000141057   -0.000010026    0.000000000
     14        8           0.000140613    0.000000483    0.000000000
     15        1           0.000004934   -0.000001798    0.000000000
 -------------------------------------------------------------------
 Cartesian Forces:  Max     0.001774287 RMS     0.000420618
 IRC-IRC-IRC-IRC-IRC-IRC-IRC-IRC-IRC-IRC-IRC-IRC-IRC-IRC-IRC-IRC-IRC-IRC
 Pt  3 Step number   1 out of a maximum of1000
 CORRECTOR INTEGRATION CONVERGENCE:
   Recorrection delta-x convergence threshold:    0.010000
   Delta-x Convergence Met
 Point Number:   3          Path Number:   1
   CHANGE IN THE REACTION COORDINATE =    0.03580
   NET REACTION COORDINATE UP TO THIS POINT =    0.10723
  # OF POINTS ALONG THE PATH =   3
  # OF STEPS =   1

 Calculating another point on the path.
 IRC-IRC-IRC-IRC-IRC-IRC-IRC-IRC-IRC-IRC-IRC-IRC-IRC-IRC-IRC-IRC-IRC-IRC
                          Input orientation:                          
 ---------------------------------------------------------------------
 Center     Atomic      Atomic             Coordinates (Angstroms)
 Number     Number       Type             X           Y           Z
 ---------------------------------------------------------------------
      1          6           0        0.238367   -1.224627    0.000000
      2          6           0       -1.183034   -1.212931    0.000000
      3          6           0       -1.635294    0.044454    0.000000
      4          6           0       -1.035622    1.304275    0.000000
      5          6           0        0.351817    1.235656    0.000000
      6          6           0        0.985408   -0.033558    0.000000
      7          1           0        0.790562   -2.165960    0.000000
      8          1           0       -1.584329    2.246170    0.000000
      9          1           0        0.946945    2.145225    0.000000
     10          7           0       -3.242203    0.107493    0.000000
     11          7           0       -4.311429   -0.196325    0.000000
     12          6           0        2.476194   -0.137869    0.000000
     13          8           0        3.103101   -1.175794    0.000000
     14          8           0        3.096647    1.075534    0.000000
     15          1           0        4.049881    0.892660    0.000000
 ---------------------------------------------------------------------
                    Distance matrix (angstroms):
                    1          2          3          4          5
     1  C    0.000000
     2  C    1.421449   0.000000
     3  C    2.263001   1.336247   0.000000
     4  C    2.831677   2.521518   1.395261   0.000000
     5  C    2.462898   2.889870   2.316802   1.389135   0.000000
     6  C    1.405958   2.468413   2.621864   2.423707   1.418570
     7  H    1.091341   2.191654   3.281876   3.921412   3.429794
     8  H    3.920288   3.482301   2.202306   1.090067   2.183987
     9  H    3.443543   3.976685   3.328844   2.153548   1.086965
    10  N    3.726783   2.446159   1.608145   2.510236   3.766926
    11  N    4.664552   3.289428   2.686944   3.603153   4.878158
    12  C    2.487753   3.813884   4.115529   3.796396   2.529732
    13  O    2.865150   4.286296   4.892994   4.824911   3.658504
    14  O    3.668857   4.853117   4.842974   4.138595   2.749497
    15  H    4.360108   5.640649   5.748102   5.102133   3.713936
                    6          7          8          9         10
     6  C    0.000000
     7  H    2.141285   0.000000
     8  H    3.435216   5.010688   0.000000
     9  H    2.179123   4.314020   2.533286   0.000000
    10  N    4.229964   4.629447   2.706010   4.658467   0.000000
    11  N    5.299337   5.468982   3.660991   5.756158   1.111552
    12  C    1.494430   2.637140   4.708661   2.747930   5.723658
    13  O    2.406101   2.515604   5.803605   3.959567   6.473770
    14  O    2.384830   3.978104   4.825135   2.401137   6.412342
    15  H    3.201386   4.469711   5.794507   3.346211   7.334233
                   11         12         13         14         15
    11  N    0.000000
    12  C    6.787874   0.000000
    13  O    7.478944   1.212560   0.000000
    14  O    7.516463   1.362831   2.251337   0.000000
    15  H    8.431927   1.881085   2.274839   0.970617   0.000000
 Symmetry turned off by external request.
 Stoichiometry    C7H4N2O2
 Framework group  CS[SG(C7H4N2O2)]
 Deg. of freedom    27
 Full point group                 CS      NOp   2
 Rotational constants (GHZ):      3.8513106      0.5712836      0.4974887
 Standard basis: Aug-CC-pVDZ (5D, 7F)
 Integral buffers will be    131072 words long.
 Raffenetti 2 integral format.
 Two-electron integral symmetry is turned off.
   289 basis functions,   517 primitive gaussians,   311 cartesian basis functions
    38 alpha electrons       38 beta electrons
       nuclear repulsion energy       519.6734892479 Hartrees.
 NAtoms=   15 NActive=   15 NUniq=   15 SFac= 1.00D+00 NAtFMM=   50 NAOKFM=F Big=F
 One-electron integrals computed using PRISM.
 NBasis=   289 RedAO= T  NBF=   289
 NBsUse=   289 1.00D-06 NBFU=   289
 Initial guess read from the read-write file.
 B after Tr=     0.000000    0.000000    0.000000
         Rot=    1.000000    0.000000    0.000000    0.000000 Ang=   0.00 deg.
 Harris functional with IExCor=  402 diagonalized for initial guess.
 ExpMin= 2.97D-02 ExpMax= 1.17D+04 ExpMxC= 4.01D+02 IAcc=3 IRadAn=         0 AccDes= 0.00D+00
 HarFok:  IExCor=  402 AccDes= 0.00D+00 IRadAn=         0 IDoV= 1
 ScaDFX=  1.000000  1.000000  1.000000  1.000000
 FoFCou: FMM=F IPFlag=           0 FMFlag=      100000 FMFlg1=           0
         NFxFlg=           0 DoJE=T BraDBF=F KetDBF=T FulRan=T
         Omega=  0.000000  0.000000  1.000000  0.000000  0.000000 ICntrl=     500 IOpCl=  0
         NMat0=    1 NMatS0=    1 NMatT0=    0 NMatD0=    1 NMtDS0=    0 NMtDT0=    0
         I1Cent=           4 NGrid=           0.
 Symmetry not used in FoFCou.
 Requested convergence on RMS density matrix=1.00D-08 within 128 cycles.
 Requested convergence on MAX density matrix=1.00D-06.
 Requested convergence on             energy=1.00D-06.
 No special actions if energy rises.
 SCF Done:  E(RB3LYP) =  -529.043888981     A.U. after   12 cycles
             Convg  =    0.6813D-08             -V/T =  2.0061
 QCSCF skips out because SCF is already converged.
 Range of M.O.s used for correlation:     1   289
 NBasis=   289 NAE=    38 NBE=    38 NFC=     0 NFV=     0
 NROrb=    289 NOA=    38 NOB=    38 NVA=   251 NVB=   251

 **** Warning!!: The largest alpha MO coefficient is  0.83254939D+02

 Symmetrizing basis deriv contribution to polar:
 IMax=3 JMax=2 DiffMx= 0.00D+00
 Calling FoFJK, ICntrl=      2147 FMM=F ISym2X=0 I1Cent= 0 IOpClX= 0 NMat=1 NMatS=1 NMatT=0.
 -------------------------------------------------------------------
 Center     Atomic                   Forces (Hartrees/Bohr)
 Number     Number              X              Y              Z
 -------------------------------------------------------------------
      1        6           0.000383414   -0.000265233    0.000000000
      2        6           0.000564846    0.000364013    0.000000000
      3        6           0.001648519   -0.000305846    0.000000000
      4        6           0.000173516   -0.000099109    0.000000000
      5        6           0.000292407   -0.000088587    0.000000000
      6        6           0.000220365   -0.000022498    0.000000000
      7        1           0.000033814   -0.000018256    0.000000000
      8        1          -0.000021246   -0.000031523    0.000000000
      9        1           0.000021995   -0.000005304    0.000000000
     10        7          -0.002345845    0.001400881    0.000000000
     11        7          -0.001428495   -0.000916591    0.000000000
     12        6           0.000119565   -0.000001555    0.000000000
     13        8           0.000162653   -0.000011316    0.000000000
     14        8           0.000163073    0.000002805    0.000000000
     15        1           0.000011419   -0.000001882    0.000000000
 -------------------------------------------------------------------
 Cartesian Forces:  Max     0.002345845 RMS     0.000559358
 IRC-IRC-IRC-IRC-IRC-IRC-IRC-IRC-IRC-IRC-IRC-IRC-IRC-IRC-IRC-IRC-IRC-IRC
 Pt  4 Step number   1 out of a maximum of1000
 CORRECTOR INTEGRATION CONVERGENCE:
   Recorrection delta-x convergence threshold:    0.010000
   Delta-x Convergence Met
 Point Number:   4          Path Number:   1
   CHANGE IN THE REACTION COORDINATE =    0.03579
   NET REACTION COORDINATE UP TO THIS POINT =    0.14303
  # OF POINTS ALONG THE PATH =   4
  # OF STEPS =   1

 Calculating another point on the path.
 IRC-IRC-IRC-IRC-IRC-IRC-IRC-IRC-IRC-IRC-IRC-IRC-IRC-IRC-IRC-IRC-IRC-IRC
                          Input orientation:                          
 ---------------------------------------------------------------------
 Center     Atomic      Atomic             Coordinates (Angstroms)
 Number     Number       Type             X           Y           Z
 ---------------------------------------------------------------------
      1          6           0        0.238956   -1.225039    0.000000
      2          6           0       -1.182174   -1.212363    0.000000
      3          6           0       -1.632745    0.043976    0.000000
      4          6           0       -1.035355    1.304125    0.000000
      5          6           0        0.352272    1.235522    0.000000
      6          6           0        0.985752   -0.033591    0.000000
      7          1           0        0.791200   -2.166314    0.000000
      8          1           0       -1.584713    2.245602    0.000000
      9          1           0        0.947363    2.145119    0.000000
     10          7           0       -3.245255    0.109357    0.000000
     11          7           0       -4.313338   -0.197551    0.000000
     12          6           0        2.476367   -0.137870    0.000000
     13          8           0        3.103280   -1.175808    0.000000
     14          8           0        3.096830    1.075537    0.000000
     15          1           0        4.050056    0.892632    0.000000
 ---------------------------------------------------------------------
                    Distance matrix (angstroms):
                    1          2          3          4          5
     1  C    0.000000
     2  C    1.421187   0.000000
     3  C    2.261342   1.334692   0.000000
     4  C    2.832056   2.520767   1.394579   0.000000
     5  C    2.463169   2.889060   2.315183   1.389322   0.000000
     6  C    1.406148   2.467672   2.619645   2.423707   1.418430
     7  H    1.091316   2.191854   3.280380   3.921766   3.430036
     8  H    3.920601   3.481316   2.202149   1.090033   2.184529
     9  H    3.443807   3.975879   3.327426   2.153705   1.086968
    10  N    3.730998   2.450153   1.613835   2.512196   3.769675
    11  N    4.666810   3.291509   2.691452   3.605579   4.880739
    12  C    2.487558   3.813064   4.113134   3.796254   2.529424
    13  O    2.864747   4.285610   4.890584   4.824766   3.658218
    14  O    3.668800   4.852253   4.840764   4.138503   2.749217
    15  H    4.359932   5.639790   5.745820   5.102032   3.713648
                    6          7          8          9         10
     6  C    0.000000
     7  H    2.141578   0.000000
     8  H    3.435405   5.010984   0.000000
     9  H    2.179048   4.314260   2.534069   0.000000
    10  N    4.233421   4.633751   2.705724   4.660727   0.000000
    11  N    5.301625   5.471045   3.662566   5.758739   1.111302
    12  C    1.494259   2.637114   4.708854   2.747707   5.726961
    13  O    2.405948   2.515316   5.803733   3.959360   6.477311
    14  O    2.384705   3.978131   4.825546   2.400877   6.415259
    15  H    3.201226   4.469596   5.794924   3.345956   7.337240
                   11         12         13         14         15
    11  N    0.000000
    12  C    6.789967   0.000000
    13  O    7.480856   1.212574   0.000000
    14  O    7.518733   1.362839   2.251354   0.000000
    15  H    8.434148   1.881071   2.274825   0.970615   0.000000
 Symmetry turned off by external request.
 Stoichiometry    C7H4N2O2
 Framework group  CS[SG(C7H4N2O2)]
 Deg. of freedom    27
 Full point group                 CS      NOp   2
 Rotational constants (GHZ):      3.8513704      0.5709977      0.4972728
 Standard basis: Aug-CC-pVDZ (5D, 7F)
 Integral buffers will be    131072 words long.
 Raffenetti 2 integral format.
 Two-electron integral symmetry is turned off.
   289 basis functions,   517 primitive gaussians,   311 cartesian basis functions
    38 alpha electrons       38 beta electrons
       nuclear repulsion energy       519.6169279831 Hartrees.
 NAtoms=   15 NActive=   15 NUniq=   15 SFac= 1.00D+00 NAtFMM=   50 NAOKFM=F Big=F
 One-electron integrals computed using PRISM.
 NBasis=   289 RedAO= T  NBF=   289
 NBsUse=   289 1.00D-06 NBFU=   289
 Initial guess read from the read-write file.
 B after Tr=     0.000000    0.000000    0.000000
         Rot=    1.000000    0.000000    0.000000    0.000000 Ang=   0.00 deg.
 Harris functional with IExCor=  402 diagonalized for initial guess.
 ExpMin= 2.97D-02 ExpMax= 1.17D+04 ExpMxC= 4.01D+02 IAcc=3 IRadAn=         0 AccDes= 0.00D+00
 HarFok:  IExCor=  402 AccDes= 0.00D+00 IRadAn=         0 IDoV= 1
 ScaDFX=  1.000000  1.000000  1.000000  1.000000
 FoFCou: FMM=F IPFlag=           0 FMFlag=      100000 FMFlg1=           0
         NFxFlg=           0 DoJE=T BraDBF=F KetDBF=T FulRan=T
         Omega=  0.000000  0.000000  1.000000  0.000000  0.000000 ICntrl=     500 IOpCl=  0
         NMat0=    1 NMatS0=    1 NMatT0=    0 NMatD0=    1 NMtDS0=    0 NMtDT0=    0
         I1Cent=           4 NGrid=           0.
 Symmetry not used in FoFCou.
 Requested convergence on RMS density matrix=1.00D-08 within 128 cycles.
 Requested convergence on MAX density matrix=1.00D-06.
 Requested convergence on             energy=1.00D-06.
 No special actions if energy rises.
 SCF Done:  E(RB3LYP) =  -529.043929543     A.U. after   12 cycles
             Convg  =    0.6783D-08             -V/T =  2.0061
 QCSCF skips out because SCF is already converged.
 Range of M.O.s used for correlation:     1   289
 NBasis=   289 NAE=    38 NBE=    38 NFC=     0 NFV=     0
 NROrb=    289 NOA=    38 NOB=    38 NVA=   251 NVB=   251

 **** Warning!!: The largest alpha MO coefficient is  0.82923381D+02

 Symmetrizing basis deriv contribution to polar:
 IMax=3 JMax=2 DiffMx= 0.00D+00
 Calling FoFJK, ICntrl=      2147 FMM=F ISym2X=0 I1Cent= 0 IOpClX= 0 NMat=1 NMatS=1 NMatT=0.
 -------------------------------------------------------------------
 Center     Atomic                   Forces (Hartrees/Bohr)
 Number     Number              X              Y              Z
 -------------------------------------------------------------------
      1        6           0.000489296   -0.000337293    0.000000000
      2        6           0.000700049    0.000455236    0.000000000
      3        6           0.002064748   -0.000375177    0.000000000
      4        6           0.000211556   -0.000114404    0.000000000
      5        6           0.000368111   -0.000105238    0.000000000
      6        6           0.000294359   -0.000032083    0.000000000
      7        1           0.000043082   -0.000024718    0.000000000
      8        1          -0.000023940   -0.000039773    0.000000000
      9        1           0.000029537   -0.000008388    0.000000000
     10        7          -0.002907094    0.001763649    0.000000000
     11        7          -0.001802051   -0.001159676    0.000000000
     12        6           0.000138224   -0.000005171    0.000000000
     13        8           0.000193003   -0.000017018    0.000000000
     14        8           0.000189534    0.000001884    0.000000000
     15        1           0.000011585   -0.000001829    0.000000000
 -------------------------------------------------------------------
 Cartesian Forces:  Max     0.002907094 RMS     0.000699186
 IRC-IRC-IRC-IRC-IRC-IRC-IRC-IRC-IRC-IRC-IRC-IRC-IRC-IRC-IRC-IRC-IRC-IRC
 Pt  5 Step number   1 out of a maximum of1000
 CORRECTOR INTEGRATION CONVERGENCE:
   Recorrection delta-x convergence threshold:    0.010000
   Delta-x Convergence Met
 Point Number:   5          Path Number:   1
   CHANGE IN THE REACTION COORDINATE =    0.03580
   NET REACTION COORDINATE UP TO THIS POINT =    0.17882
  # OF POINTS ALONG THE PATH =   5
  # OF STEPS =   1

 Calculating another point on the path.
 IRC-IRC-IRC-IRC-IRC-IRC-IRC-IRC-IRC-IRC-IRC-IRC-IRC-IRC-IRC-IRC-IRC-IRC
                          Input orientation:                          
 ---------------------------------------------------------------------
 Center     Atomic      Atomic             Coordinates (Angstroms)
 Number     Number       Type             X           Y           Z
 ---------------------------------------------------------------------
      1          6           0        0.239560   -1.225456    0.000000
      2          6           0       -1.181313   -1.211797    0.000000
      3          6           0       -1.630203    0.043511    0.000000
      4          6           0       -1.035091    1.303987    0.000000
      5          6           0        0.352728    1.235390    0.000000
      6          6           0        0.986113   -0.033630    0.000000
      7          1           0        0.791839   -2.166682    0.000000
      8          1           0       -1.585075    2.245052    0.000000
      9          1           0        0.947800    2.145001    0.000000
     10          7           0       -3.248309    0.111221    0.000000
     11          7           0       -4.315250   -0.198779    0.000000
     12          6           0        2.476537   -0.137877    0.000000
     13          8           0        3.103457   -1.175826    0.000000
     14          8           0        3.097000    1.075538    0.000000
     15          1           0        4.050218    0.892609    0.000000
 ---------------------------------------------------------------------
                    Distance matrix (angstroms):
                    1          2          3          4          5
     1  C    0.000000
     2  C    1.420938   0.000000
     3  C    2.259710   1.333154   0.000000
     4  C    2.832458   2.520030   1.393900   0.000000
     5  C    2.463446   2.888252   2.313566   1.389514   0.000000
     6  C    1.406339   2.466943   2.617453   2.423734   1.418304
     7  H    1.091292   2.192062   3.278908   3.922145   3.430292
     8  H    3.920933   3.480348   2.202003   1.089992   2.185062
     9  H    3.444065   3.975074   3.326012   2.153872   1.086970
    10  N    3.735229   2.454150   1.619523   2.514165   3.772429
    11  N    4.669085   3.293594   2.695956   3.608011   4.883324
    12  C    2.487347   3.812239   4.110743   3.796117   2.529116
    13  O    2.864327   4.284921   4.888182   4.824631   3.657933
    14  O    3.668724   4.851377   4.838546   4.138402   2.748924
    15  H    4.359738   5.638921   5.743531   5.101921   3.713345
                    6          7          8          9         10
     6  C    0.000000
     7  H    2.141880   0.000000
     8  H    3.435607   5.011298   0.000000
     9  H    2.178968   4.314503   2.534850   0.000000
    10  N    4.236899   4.638064   2.705472   4.663003   0.000000
    11  N    5.303934   5.473116   3.664173   5.761336   1.111063
    12  C    1.494065   2.637092   4.709038   2.747466   5.730263
    13  O    2.405776   2.515029   5.803856   3.959135   6.480851
    14  O    2.384554   3.978160   4.825929   2.400586   6.418166
    15  H    3.201040   4.469484   5.795311   3.345666   7.340236
                   11         12         13         14         15
    11  N    0.000000
    12  C    6.792060   0.000000
    13  O    7.482769   1.212587   0.000000
    14  O    7.520993   1.362847   2.251374   0.000000
    15  H    8.436360   1.881057   2.274814   0.970612   0.000000
 Symmetry turned off by external request.
 Stoichiometry    C7H4N2O2
 Framework group  CS[SG(C7H4N2O2)]
 Deg. of freedom    27
 Full point group                 CS      NOp   2
 Rotational constants (GHZ):      3.8514016      0.5707121      0.4970567
 Standard basis: Aug-CC-pVDZ (5D, 7F)
 Integral buffers will be    131072 words long.
 Raffenetti 2 integral format.
 Two-electron integral symmetry is turned off.
   289 basis functions,   517 primitive gaussians,   311 cartesian basis functions
    38 alpha electrons       38 beta electrons
       nuclear repulsion energy       519.5602459183 Hartrees.
 NAtoms=   15 NActive=   15 NUniq=   15 SFac= 1.00D+00 NAtFMM=   50 NAOKFM=F Big=F
 One-electron integrals computed using PRISM.
 NBasis=   289 RedAO= T  NBF=   289
 NBsUse=   289 1.00D-06 NBFU=   289
 Initial guess read from the read-write file.
 B after Tr=     0.000000    0.000000    0.000000
         Rot=    1.000000    0.000000    0.000000    0.000000 Ang=   0.00 deg.
 Harris functional with IExCor=  402 diagonalized for initial guess.
 ExpMin= 2.97D-02 ExpMax= 1.17D+04 ExpMxC= 4.01D+02 IAcc=3 IRadAn=         0 AccDes= 0.00D+00
 HarFok:  IExCor=  402 AccDes= 0.00D+00 IRadAn=         0 IDoV= 1
 ScaDFX=  1.000000  1.000000  1.000000  1.000000
 FoFCou: FMM=F IPFlag=           0 FMFlag=      100000 FMFlg1=           0
         NFxFlg=           0 DoJE=T BraDBF=F KetDBF=T FulRan=T
         Omega=  0.000000  0.000000  1.000000  0.000000  0.000000 ICntrl=     500 IOpCl=  0
         NMat0=    1 NMatS0=    1 NMatT0=    0 NMatD0=    1 NMtDS0=    0 NMtDT0=    0
         I1Cent=           4 NGrid=           0.
 Symmetry not used in FoFCou.
 Requested convergence on RMS density matrix=1.00D-08 within 128 cycles.
 Requested convergence on MAX density matrix=1.00D-06.
 Requested convergence on             energy=1.00D-06.
 No special actions if energy rises.
 SCF Done:  E(RB3LYP) =  -529.043979264     A.U. after   12 cycles
             Convg  =    0.6300D-08             -V/T =  2.0060
 QCSCF skips out because SCF is already converged.
 Range of M.O.s used for correlation:     1   289
 NBasis=   289 NAE=    38 NBE=    38 NFC=     0 NFV=     0
 NROrb=    289 NOA=    38 NOB=    38 NVA=   251 NVB=   251

 **** Warning!!: The largest alpha MO coefficient is  0.82579404D+02

 Symmetrizing basis deriv contribution to polar:
 IMax=3 JMax=2 DiffMx= 0.00D+00
 Calling FoFJK, ICntrl=      2147 FMM=F ISym2X=0 I1Cent= 0 IOpClX= 0 NMat=1 NMatS=1 NMatT=0.
 -------------------------------------------------------------------
 Center     Atomic                   Forces (Hartrees/Bohr)
 Number     Number              X              Y              Z
 -------------------------------------------------------------------
      1        6           0.000587044   -0.000409344    0.000000000
      2        6           0.000848662    0.000540179    0.000000000
      3        6           0.002476489   -0.000447067    0.000000000
      4        6           0.000268481   -0.000129190    0.000000000
      5        6           0.000440925   -0.000129801    0.000000000
      6        6           0.000346123   -0.000037909    0.000000000
      7        1           0.000051707   -0.000028060    0.000000000
      8        1          -0.000029768   -0.000045774    0.000000000
      9        1           0.000035465   -0.000008652    0.000000000
     10        7          -0.003493147    0.002117339    0.000000000
     11        7          -0.002142614   -0.001394124    0.000000000
     12        6           0.000155344   -0.000003817    0.000000000
     13        8           0.000224078   -0.000024256    0.000000000
     14        8           0.000217082    0.000001800    0.000000000
     15        1           0.000014128   -0.000001324    0.000000000
 -------------------------------------------------------------------
 Cartesian Forces:  Max     0.003493147 RMS     0.000838358
 IRC-IRC-IRC-IRC-IRC-IRC-IRC-IRC-IRC-IRC-IRC-IRC-IRC-IRC-IRC-IRC-IRC-IRC
 Pt  6 Step number   1 out of a maximum of1000
 CORRECTOR INTEGRATION CONVERGENCE:
   Recorrection delta-x convergence threshold:    0.010000
   Delta-x Convergence Met
 Point Number:   6          Path Number:   1
   CHANGE IN THE REACTION COORDINATE =    0.03580
   NET REACTION COORDINATE UP TO THIS POINT =    0.21462
  # OF POINTS ALONG THE PATH =   6
  # OF STEPS =   1

 Calculating another point on the path.
 IRC-IRC-IRC-IRC-IRC-IRC-IRC-IRC-IRC-IRC-IRC-IRC-IRC-IRC-IRC-IRC-IRC-IRC
                          Input orientation:                          
 ---------------------------------------------------------------------
 Center     Atomic      Atomic             Coordinates (Angstroms)
 Number     Number       Type             X           Y           Z
 ---------------------------------------------------------------------
      1          6           0        0.240165   -1.225876    0.000000
      2          6           0       -1.180443   -1.211240    0.000000
      3          6           0       -1.627656    0.043049    0.000000
      4          6           0       -1.034816    1.303856    0.000000
      5          6           0        0.353184    1.235257    0.000000
      6          6           0        0.986467   -0.033669    0.000000
      7          1           0        0.792487   -2.167043    0.000000
      8          1           0       -1.585436    2.244504    0.000000
      9          1           0        0.948234    2.144888    0.000000
     10          7           0       -3.251365    0.113090    0.000000
     11          7           0       -4.317147   -0.200012    0.000000
     12          6           0        2.476695   -0.137882    0.000000
     13          8           0        3.103626   -1.175844    0.000000
     14          8           0        3.097165    1.075539    0.000000
     15          1           0        4.050377    0.892592    0.000000
 ---------------------------------------------------------------------
                    Distance matrix (angstroms):
                    1          2          3          4          5
     1  C    0.000000
     2  C    1.420683   0.000000
     3  C    2.258080   1.331631   0.000000
     4  C    2.832865   2.519309   1.393232   0.000000
     5  C    2.463727   2.887448   2.311945   1.389695   0.000000
     6  C    1.406529   2.466206   2.615248   2.423749   1.418175
     7  H    1.091263   2.192261   3.277438   3.922522   3.430544
     8  H    3.921270   3.479394   2.201860   1.089954   2.185595
     9  H    3.444331   3.974275   3.324596   2.154025   1.086975
    10  N    3.739467   2.458164   1.625219   2.516151   3.775187
    11  N    4.671348   3.295679   2.700452   3.610445   4.885897
    12  C    2.487126   3.811398   4.108337   3.795961   2.528796
    13  O    2.863898   4.284215   4.885768   4.824481   3.657641
    14  O    3.668646   4.850493   4.836318   4.138284   2.748625
    15  H    4.359544   5.638048   5.741235   5.101796   3.713038
                    6          7          8          9         10
     6  C    0.000000
     7  H    2.142175   0.000000
     8  H    3.435805   5.011612   0.000000
     9  H    2.178893   4.314743   2.535627   0.000000
    10  N    4.240373   4.642386   2.705226   4.665280   0.000000
    11  N    5.306222   5.475178   3.665774   5.763922   1.110821
    12  C    1.493868   2.637053   4.709211   2.747223   5.733556
    13  O    2.405603   2.514724   5.803971   3.958911   6.484386
    14  O    2.384405   3.978175   4.826306   2.400294   6.421070
    15  H    3.200860   4.469363   5.795692   3.345375   7.343232
                   11         12         13         14         15
    11  N    0.000000
    12  C    6.794126   0.000000
    13  O    7.484659   1.212604   0.000000
    14  O    7.523234   1.362855   2.251393   0.000000
    15  H    8.438557   1.881050   2.274811   0.970610   0.000000
 Symmetry turned off by external request.
 Stoichiometry    C7H4N2O2
 Framework group  CS[SG(C7H4N2O2)]
 Deg. of freedom    27
 Full point group                 CS      NOp   2
 Rotational constants (GHZ):      3.8514092      0.5704293      0.4968424
 Standard basis: Aug-CC-pVDZ (5D, 7F)
 Integral buffers will be    131072 words long.
 Raffenetti 2 integral format.
 Two-electron integral symmetry is turned off.
   289 basis functions,   517 primitive gaussians,   311 cartesian basis functions
    38 alpha electrons       38 beta electrons
       nuclear repulsion energy       519.5044024520 Hartrees.
 NAtoms=   15 NActive=   15 NUniq=   15 SFac= 1.00D+00 NAtFMM=   50 NAOKFM=F Big=F
 One-electron integrals computed using PRISM.
 NBasis=   289 RedAO= T  NBF=   289
 NBsUse=   289 1.00D-06 NBFU=   289
 Initial guess read from the read-write file.
 B after Tr=     0.000000    0.000000    0.000000
         Rot=    1.000000    0.000000    0.000000    0.000000 Ang=   0.00 deg.
 Harris functional with IExCor=  402 diagonalized for initial guess.
 ExpMin= 2.97D-02 ExpMax= 1.17D+04 ExpMxC= 4.01D+02 IAcc=3 IRadAn=         0 AccDes= 0.00D+00
 HarFok:  IExCor=  402 AccDes= 0.00D+00 IRadAn=         0 IDoV= 1
 ScaDFX=  1.000000  1.000000  1.000000  1.000000
 FoFCou: FMM=F IPFlag=           0 FMFlag=      100000 FMFlg1=           0
         NFxFlg=           0 DoJE=T BraDBF=F KetDBF=T FulRan=T
         Omega=  0.000000  0.000000  1.000000  0.000000  0.000000 ICntrl=     500 IOpCl=  0
         NMat0=    1 NMatS0=    1 NMatT0=    0 NMatD0=    1 NMtDS0=    0 NMtDT0=    0
         I1Cent=           4 NGrid=           0.
 Symmetry not used in FoFCou.
 Requested convergence on RMS density matrix=1.00D-08 within 128 cycles.
 Requested convergence on MAX density matrix=1.00D-06.
 Requested convergence on             energy=1.00D-06.
 No special actions if energy rises.
 SCF Done:  E(RB3LYP) =  -529.044038145     A.U. after   12 cycles
             Convg  =    0.5916D-08             -V/T =  2.0060
 QCSCF skips out because SCF is already converged.
 Range of M.O.s used for correlation:     1   289
 NBasis=   289 NAE=    38 NBE=    38 NFC=     0 NFV=     0
 NROrb=    289 NOA=    38 NOB=    38 NVA=   251 NVB=   251

 **** Warning!!: The largest alpha MO coefficient is  0.82225124D+02

 Symmetrizing basis deriv contribution to polar:
 IMax=3 JMax=2 DiffMx= 0.00D+00
 Calling FoFJK, ICntrl=      2147 FMM=F ISym2X=0 I1Cent= 0 IOpClX= 0 NMat=1 NMatS=1 NMatT=0.
 -------------------------------------------------------------------
 Center     Atomic                   Forces (Hartrees/Bohr)
 Number     Number              X              Y              Z
[...]
 378                   -0.04286  11.30970
 379                   -0.04288  11.34549
 380                   -0.04290  11.38127
 381                   -0.04292  11.41706
 382                   -0.04294  11.45285
 383                   -0.04296  11.48864
 384                   -0.04298  11.52443
 385                   -0.04299  11.56021
 386                   -0.04301  11.59601
 387                   -0.04303  11.63180
 388                   -0.04305  11.66760
 389                   -0.04306  11.70339
 390                   -0.04308  11.73919
 391                   -0.04310  11.77498
 392                   -0.04311  11.81077
 393                   -0.04313  11.84657
 394                   -0.04314  11.88236
 395                   -0.04316  11.91815
 396                   -0.04317  11.95394
 397                   -0.04319  11.98974
 398                   -0.04320  12.02553
 399                   -0.04322  12.06132
 400                   -0.04323  12.09711
 401                   -0.04325  12.13290
 402                   -0.04326  12.16870
 403                   -0.04328  12.20449
 404                   -0.04329  12.24028
 405                   -0.04330  12.27607
 406                   -0.04332  12.31186
 407                   -0.04333  12.34765
 408                   -0.04334  12.38344
 409                   -0.04335  12.41923
 410                   -0.04337  12.45503
 411                   -0.04338  12.49082
 412                   -0.04339  12.52662
 413                   -0.04340  12.56241
 414                   -0.04341  12.59820
 415                   -0.04343  12.63399
 416                   -0.04344  12.66978
 417                   -0.04345  12.70557
 418                   -0.04346  12.74136
 419                   -0.04347  12.77715
 420                   -0.04348  12.81294
 421                   -0.04349  12.84872
 422                   -0.04350  12.88451
 423                   -0.04351  12.92029
 424                   -0.04352  12.95608
 425                   -0.04353  12.99186
 426                   -0.04354  13.02765
 427                   -0.04355  13.06344
 428                   -0.04356  13.09927
 429                   -0.04357  13.13506
 430                   -0.04358  13.17088
 431                   -0.04359  13.20667
 432                   -0.04360  13.24247
 433                   -0.04360  13.27826
 434                   -0.04361  13.31405
 435                   -0.04362  13.34984
 436                   -0.04363  13.38563
 437                   -0.04364  13.42142
 438                   -0.04365  13.45721
 439                   -0.04365  13.49300
 440                   -0.04366  13.52879
 441                   -0.04367  13.56458
 442                   -0.04368  13.60037
 443                   -0.04368  13.63616
 444                   -0.04369  13.67194
 --------------------------------------------------------------------------
 
 Total number of points:                  443
 Total number of gradient calculations:   445
 Total number of Hessian calculations:      1
 IRC-IRC-IRC-IRC-IRC-IRC-IRC-IRC-IRC-IRC-IRC-IRC-IRC-IRC-IRC-IRC-IRC-IRC
                          Input orientation:                          
 ---------------------------------------------------------------------
 Center     Atomic      Atomic             Coordinates (Angstroms)
 Number     Number       Type             X           Y           Z
 ---------------------------------------------------------------------
      1          6           0        0.233133   -1.233266    0.000000
      2          6           0       -1.195008   -1.290774    0.000000
      3          6           0       -1.710199    0.011916    0.000000
      4          6           0       -1.059929    1.276138    0.000000
      5          6           0        0.316843    1.226372    0.000000
      6          6           0        0.964679   -0.041444    0.000000
      7          1           0        0.804583   -2.163679    0.000000
      8          1           0       -1.606419    2.219819    0.000000
      9          1           0        0.903806    2.141031    0.000000
     10          7           0       -3.115295    0.027716    0.000000
     11          7           0       -4.229656   -0.036988    0.000000
     12          6           0        2.460589   -0.125950    0.000000
     13          8           0        3.100012   -1.155120    0.000000
     14          8           0        3.061463    1.096362    0.000000
     15          1           0        4.017714    0.930868    0.000000
 ---------------------------------------------------------------------
                    Distance matrix (angstroms):
                    1          2          3          4          5
     1  C    0.000000
     2  C    1.429298   0.000000
     3  C    2.308033   1.400865   0.000000
     4  C    2.822962   2.570464   1.421657   0.000000
     5  C    2.461061   2.936277   2.363007   1.377671   0.000000
     6  C    1.398427   2.495010   2.675410   2.415586   1.423744
     7  H    1.091890   2.181817   3.325258   3.912639   3.424957
     8  H    3.912511   3.534618   2.210341   1.090498   2.164688
     9  H    3.440302   4.022724   3.371372   2.145762   1.086796
    10  N    3.577994   2.329360   1.405185   2.404805   3.635430
    11  N    4.620342   3.283454   2.519932   3.430958   4.718764
    12  C    2.487510   3.836692   4.173065   3.789445   2.534643
    13  O    2.867944   4.297162   4.949758   4.818311   3.662995
    14  O    3.664235   4.880160   4.893340   4.125311   2.747697
    15  H    4.359648   5.666407   5.801160   5.089368   3.712650
                    6          7          8          9         10
     6  C    0.000000
     7  H    2.128265   0.000000
     8  H    3.424011   5.002797   0.000000
     9  H    2.183323   4.305853   2.511461   0.000000
    10  N    4.080560   4.490841   2.661208   4.540845   0.000000
    11  N    5.194337   5.465014   3.460427   5.576397   1.116238
    12  C    1.498295   2.625775   4.695016   2.750049   5.578001
    13  O    2.408303   2.507227   5.791434   3.960799   6.326859
    14  O    2.385604   3.965019   4.801174   2.397251   6.268520
    15  H    3.204125   4.460990   5.769945   3.340796   7.189959
                   11         12         13         14         15
    11  N    0.000000
    12  C    6.690836   0.000000
    13  O    7.414463   1.211633   0.000000
    14  O    7.378679   1.362019   2.251812   0.000000
    15  H    8.303967   1.881888   2.278930   0.970467   0.000000
 Symmetry turned off by external request.
 Stoichiometry    C7H4N2O2
 Framework group  C1[X(C7H4N2O2)]
 Deg. of freedom    39
 Full point group                 C1      NOp   1
 Rotational constants (GHZ):      3.8341795      0.5864272      0.5086332

 **********************************************************************

            Population analysis using the SCF density.

 **********************************************************************

 Alpha  occ. eigenvalues --  -19.21015 -19.15281 -14.55015 -14.50825 -10.33592
 Alpha  occ. eigenvalues --  -10.28150 -10.23672 -10.23183 -10.22194 -10.20562
 Alpha  occ. eigenvalues --  -10.17426  -1.20317  -1.12528  -1.03570  -0.91887
 Alpha  occ. eigenvalues --   -0.84911  -0.77346  -0.73391  -0.64232  -0.64027
 Alpha  occ. eigenvalues --   -0.57628  -0.55481  -0.55234  -0.53466  -0.51929
 Alpha  occ. eigenvalues --   -0.50191  -0.46784  -0.46730  -0.46011  -0.42372
 Alpha  occ. eigenvalues --   -0.42118  -0.39184  -0.37199  -0.34199  -0.29866
 Alpha  occ. eigenvalues --   -0.29575  -0.27177  -0.20645
 Alpha virt. eigenvalues --   -0.12585  -0.10589  -0.04520  -0.03104  -0.02144
 Alpha virt. eigenvalues --   -0.01034   0.01242   0.02095   0.03092   0.03523
 Alpha virt. eigenvalues --    0.04283   0.04399   0.05678   0.05741   0.06570
 Alpha virt. eigenvalues --    0.07312   0.07835   0.07857   0.08706   0.08770
 Alpha virt. eigenvalues --    0.10253   0.10254   0.11341   0.11609   0.11900
 Alpha virt. eigenvalues --    0.12266   0.12660   0.13363   0.13478   0.13683
 Alpha virt. eigenvalues --    0.15831   0.16414   0.16590   0.16917   0.17462
 Alpha virt. eigenvalues --    0.17957   0.18922   0.18978   0.19241   0.20238
 Alpha virt. eigenvalues --    0.20410   0.21237   0.22204   0.22516   0.22847
 Alpha virt. eigenvalues --    0.23535   0.23912   0.23967   0.24242   0.25636
 Alpha virt. eigenvalues --    0.26476   0.27128   0.27305   0.28058   0.28752
 Alpha virt. eigenvalues --    0.29248   0.29718   0.30526   0.31249   0.31917
 Alpha virt. eigenvalues --    0.32681   0.32753   0.33469   0.34135   0.36143
 Alpha virt. eigenvalues --    0.37069   0.37073   0.37742   0.38170   0.38689
 Alpha virt. eigenvalues --    0.40233   0.42245   0.43761   0.44831   0.45160
 Alpha virt. eigenvalues --    0.46358   0.46664   0.47998   0.49615   0.49756
 Alpha virt. eigenvalues --    0.51387   0.51423   0.52698   0.53434   0.53820
 Alpha virt. eigenvalues --    0.53953   0.55063   0.55090   0.56614   0.56614
 Alpha virt. eigenvalues --    0.56728   0.57581   0.58521   0.60944   0.61955
 Alpha virt. eigenvalues --    0.62029   0.62108   0.63076   0.63124   0.64995
 Alpha virt. eigenvalues --    0.66222   0.68103   0.68965   0.69074   0.70486
 Alpha virt. eigenvalues --    0.70593   0.71343   0.71695   0.71971   0.72732
 Alpha virt. eigenvalues --    0.72938   0.74083   0.74893   0.75059   0.76858
 Alpha virt. eigenvalues --    0.77966   0.79275   0.80750   0.81406   0.81502
 Alpha virt. eigenvalues --    0.83038   0.85227   0.85880   0.86413   0.87077
 Alpha virt. eigenvalues --    0.88062   0.88326   0.90310   0.91217   0.93949
 Alpha virt. eigenvalues --    0.95713   0.97737   0.98616   0.99101   1.01242
 Alpha virt. eigenvalues --    1.01777   1.05426   1.06640   1.06921   1.10267
 Alpha virt. eigenvalues --    1.10608   1.13197   1.14499   1.14902   1.15364
 Alpha virt. eigenvalues --    1.18263   1.18509   1.20916   1.24184   1.25163
 Alpha virt. eigenvalues --    1.26368   1.27673   1.28419   1.31176   1.31760
 Alpha virt. eigenvalues --    1.34472   1.36582   1.37680   1.38968   1.39372
 Alpha virt. eigenvalues --    1.42181   1.44043   1.44450   1.44854   1.47084
 Alpha virt. eigenvalues --    1.49690   1.49929   1.51621   1.52143   1.52970
 Alpha virt. eigenvalues --    1.54695   1.55491   1.56050   1.58523   1.60616
 Alpha virt. eigenvalues --    1.60687   1.62103   1.65964   1.67403   1.67715
 Alpha virt. eigenvalues --    1.68425   1.70285   1.72405   1.72663   1.75537
 Alpha virt. eigenvalues --    1.77926   1.79757   1.82224   1.86509   1.87847
 Alpha virt. eigenvalues --    1.87926   1.88928   1.89687   1.92989   1.93969
 Alpha virt. eigenvalues --    1.95828   1.97667   1.98950   2.00880   2.01670
 Alpha virt. eigenvalues --    2.02606   2.05289   2.06920   2.08008   2.09385
 Alpha virt. eigenvalues --    2.10105   2.11930   2.12620   2.19190   2.20228
 Alpha virt. eigenvalues --    2.22495   2.24120   2.24814   2.27659   2.28148
 Alpha virt. eigenvalues --    2.31474   2.33678   2.36139   2.37640   2.40255
 Alpha virt. eigenvalues --    2.44353   2.52499   2.58956   2.62889   2.68378
 Alpha virt. eigenvalues --    2.70098   2.76222   2.78895   2.85368   2.86195
 Alpha virt. eigenvalues --    2.86977   2.91544   3.01963   3.03937   3.08646
 Alpha virt. eigenvalues --    3.12851   3.13807   3.29236   3.31027   3.33001
 Alpha virt. eigenvalues --    3.33177   3.36779   3.39882   3.41149   3.43026
 Alpha virt. eigenvalues --    3.49355   3.52954   3.67136   3.72993   3.89988
 Alpha virt. eigenvalues --    3.95749
          Condensed to atoms (all electrons):
              1          2          3          4          5          6
     1  C   14.811843   0.573769  -0.513301  -1.399761  -2.681556  -2.953258
     2  C    0.573769  11.094300  -0.282538  -0.485371  -1.497386  -1.342786
     3  C   -0.513301  -0.282538  11.749094  -4.393272   0.866609  -2.137370
     4  C   -1.399761  -0.485371  -4.393272  18.049362  -5.066198  -0.063320
     5  C   -2.681556  -1.497386   0.866609  -5.066198  20.806289  -4.143173
     6  C   -2.953258  -1.342786  -2.137370  -0.063320  -4.143173  17.569904
     7  H   -0.965649  -0.174022  -0.019482  -0.052734   0.257467  -0.064994
     8  H    0.093503   0.045884   1.466454  -2.309870   0.846951  -0.686096
     9  H    0.209970   0.062552  -0.686577   1.031306  -2.632692   1.075253
    10  N   -0.089518  -0.205892   0.355916   0.202993  -0.304209   0.026596
    11  N   -0.061296  -0.008345  -1.149529  -0.039113   0.018321   0.106189
    12  C   -1.343899   0.092632  -0.336262  -0.103030  -1.914795  -3.758068
    13  O   -0.038031  -0.052102  -0.001297  -0.002626  -0.106596   0.350681
    14  O   -0.146405  -0.031295   0.004396  -0.117215   0.277234   0.237862
    15  H   -0.051263  -0.004413   0.007736   0.007993   0.050164   0.089366
              7          8          9         10         11         12
     1  C   -0.965649   0.093503   0.209970  -0.089518  -0.061296  -1.343899
     2  C   -0.174022   0.045884   0.062552  -0.205892  -0.008345   0.092632
     3  C   -0.019482   1.466454  -0.686577   0.355916  -1.149529  -0.336262
     4  C   -0.052734  -2.309870   1.031306   0.202993  -0.039113  -0.103030
     5  C    0.257467   0.846951  -2.632692  -0.304209   0.018321  -1.914795
     6  C   -0.064994  -0.686096   1.075253   0.026596   0.106189  -3.758068
     7  H    2.956413   0.001563  -0.016533  -0.016777   0.004833   0.128891
     8  H    0.001563   2.772815  -0.240250  -0.199465   0.007104   0.013062
     9  H   -0.016533  -0.240250   3.270919   0.008797   0.003982  -0.065084
    10  N   -0.016777  -0.199465   0.008797   7.734280  -1.084202   0.059363
    11  N    0.004833   0.007104   0.003982  -1.084202  10.088618   0.021622
    12  C    0.128891   0.013062  -0.065084   0.059363   0.021622  13.332838
    13  O   -0.124722  -0.000156   0.017711  -0.002309  -0.000212  -0.006215
    14  O   -0.010604  -0.002481  -0.104400  -0.000233   0.000062  -0.374753
    15  H    0.004140   0.000709  -0.003410  -0.000053   0.000027  -0.148931
             13         14         15
     1  C   -0.038031  -0.146405  -0.051263
     2  C   -0.052102  -0.031295  -0.004413
     3  C   -0.001297   0.004396   0.007736
     4  C   -0.002626  -0.117215   0.007993
     5  C   -0.106596   0.277234   0.050164
     6  C    0.350681   0.237862   0.089366
     7  H   -0.124722  -0.010604   0.004140
     8  H   -0.000156  -0.002481   0.000709
     9  H    0.017711  -0.104400  -0.003410
    10  N   -0.002309  -0.000233  -0.000053
    11  N   -0.000212   0.000062   0.000027
    12  C   -0.006215  -0.374753  -0.148931
    13  O    8.500278   0.026212  -0.023655
    14  O    0.026212   8.578933   0.249490
    15  H   -0.023655   0.249490   0.555473
 Mulliken atomic charges:
              1
     1  C    0.554852
     2  C   -1.784988
     3  C    1.069422
     4  C    0.740856
     5  C    1.223568
     6  C    1.693214
     7  H   -0.907791
     8  H   -0.809725
     9  H   -0.931545
    10  N    0.514713
    11  N   -0.908062
    12  C    0.402626
    13  O   -0.536962
    14  O   -0.586804
    15  H    0.266625
 Sum of Mulliken atomic charges =   0.00000
 Mulliken charges with hydrogens summed into heavy atoms:
              1
     1  C   -0.352939
     2  C   -1.784988
     3  C    1.069422
     4  C   -0.068869
     5  C    0.292024
     6  C    1.693214
    10  N    0.514713
    11  N   -0.908062
    12  C    0.402626
    13  O   -0.536962
    14  O   -0.320178
 Sum of Mulliken charges with hydrogens summed into heavy atoms =   0.00000
 APT atomic charges:
              1
     1  C   -0.339128
     2  C   -0.374843
     3  C    0.281496
     4  C    0.488607
     5  C    0.353014
     6  C    1.724505
     7  H   -0.280385
     8  H   -0.244601
     9  H   -0.259232
    10  N   -1.954403
    11  N    1.455768
    12  C   -0.868938
    13  O    0.227705
    14  O   -1.201955
    15  H    0.992390
 Sum of APT charges=   0.00000
 APT Atomic charges with hydrogens summed into heavy atoms:
              1
     1  C   -0.619513
     2  C   -0.374843
     3  C    0.281496
     4  C    0.244006
     5  C    0.093782
     6  C    1.724505
     7  H    0.000000
     8  H    0.000000
     9  H    0.000000
    10  N   -1.954403
    11  N    1.455768
    12  C   -0.868938
    13  O    0.227705
    14  O   -0.209565
    15  H    0.000000
 Sum of APT charges=   0.00000
 Electronic spatial extent (au):  <R**2>=           1973.5453
 Charge=              0.0000 electrons
 Dipole moment (field-independent basis, Debye):
    X=             -1.6631    Y=              5.0056    Z=              0.0000  Tot=              5.2746
 Quadrupole moment (field-independent basis, Debye-Ang):
   XX=            -53.4583   YY=            -67.5122   ZZ=            -63.2335
   XY=             -0.4928   XZ=              0.0000   YZ=              0.0000
 Traceless Quadrupole moment (field-independent basis, Debye-Ang):
   XX=              7.9430   YY=             -6.1109   ZZ=             -1.8322
   XY=             -0.4928   XZ=              0.0000   YZ=              0.0000
 Octapole moment (field-independent basis, Debye-Ang**2):
  XXX=             14.8481  YYY=             21.9965  ZZZ=              0.0000  XYY=              2.6323
  XXY=             40.7771  XXZ=              0.0000  XZZ=              3.6162  YZZ=              0.0428
  YYZ=              0.0000  XYZ=              0.0000
 Hexadecapole moment (field-independent basis, Debye-Ang**3):
 XXXX=          -1846.3099 YYYY=           -438.5086 ZZZZ=            -68.2341 XXXY=             97.9110
 XXXZ=              0.0000 YYYX=            -29.6525 YYYZ=              0.0000 ZZZX=              0.0000
 ZZZY=              0.0000 XXYY=           -446.5377 XXZZ=           -347.3062 YYZZ=            -89.3439
 XXYZ=              0.0000 YYXZ=              0.0000 ZZXY=             -2.2709
 N-N= 5.230128396293D+02 E-N=-2.279696099076D+03  KE= 5.258238327096D+02
  Exact polarizability:   0.000   0.000   0.000   0.000   0.000   0.000
 Approx polarizability: 310.600 -12.511 195.262   0.000   0.000  95.165
 -------------------------------------------------------------------
 Center     Atomic                   Forces (Hartrees/Bohr)
 Number     Number              X              Y              Z
 -------------------------------------------------------------------
      1        6           0.000012290   -0.000001334    0.000000000
      2        6          -0.000018205   -0.000046287    0.000000000
      3        6           0.000217547   -0.000048948    0.000000002
      4        6          -0.000026954   -0.000011900    0.000000000
      5        6          -0.000022501   -0.000020700    0.000000000
      6        6           0.000006531   -0.000017987    0.000000000
      7        1          -0.000009785    0.000012957    0.000000000
      8        1           0.000003987    0.000020306    0.000000000
      9        1          -0.000010808    0.000012355    0.000000000
     10        7          -0.000359849    0.000042850   -0.000000003
     11        7           0.000217326    0.000039711    0.000000001
     12        6          -0.000006672    0.000000026    0.000000000
     13        8           0.000016950    0.000022454    0.000000000
     14        8          -0.000264505    0.000051770    0.000000000
     15        1           0.000244648   -0.000055274    0.000000000
 -------------------------------------------------------------------
 Cartesian Forces:  Max     0.000359849 RMS     0.000090921

 This type of calculation cannot be archived.


 THE WORLD IS MADE UP OF THE WILLS, THE WON'TS, AND THE CANT'S:
 THE WILLS DO EVERYTHING,
 THE WON'TS DO NOTHING,
 THE CAN'TS CAN'T DO ANYTHING.

                               -- FROM WALT DISNEY'S "BLACK HOLE"
 Job cpu time:  3 days 16 hours  8 minutes 21.4 seconds.
 File lengths (MBytes):  RWF=    143 Int=      0 D2E=      0 Chk=     22 Scr=      1
 Normal termination of Gaussian 09 at Sun Dec 23 20:11:39 2018.
