 Entering Gaussian System, Link 0=/home/ubuntu/g09/g09
 Input=4-NO2-C6H3-IRC.gjf
 Output=4-NO2-C6H3-IRC.log
 Initial command:
 /home/ubuntu/g09/l1.exe /home/ubuntu/g09/Gau-19656.inp -scrdir=/home/ubuntu/g09/
 Entering Link 1 = /home/ubuntu/g09/l1.exe PID=     19658.
  
 Copyright (c) 1988,1990,1992,1993,1995,1998,2003,2009,2010,
            Gaussian, Inc.  All Rights Reserved.
  
 This is part of the Gaussian(R) 09 program.  It is based on
 the Gaussian(R) 03 system (copyright 2003, Gaussian, Inc.),
 the Gaussian(R) 98 system (copyright 1998, Gaussian, Inc.),
 the Gaussian(R) 94 system (copyright 1995, Gaussian, Inc.),
 the Gaussian 92(TM) system (copyright 1992, Gaussian, Inc.),
 the Gaussian 90(TM) system (copyright 1990, Gaussian, Inc.),
 the Gaussian 88(TM) system (copyright 1988, Gaussian, Inc.),
 the Gaussian 86(TM) system (copyright 1986, Carnegie Mellon
 University), and the Gaussian 82(TM) system (copyright 1983,
 Carnegie Mellon University). Gaussian is a federally registered
 trademark of Gaussian, Inc.
  
 This software contains proprietary and confidential information,
 including trade secrets, belonging to Gaussian, Inc.
  
 This software is provided under written license and may be
 used, copied, transmitted, or stored only in accord with that
 written license.
  
 The following legend is applicable only to US Government
 contracts under FAR:
  
                    RESTRICTED RIGHTS LEGEND
  
 Use, reproduction and disclosure by the US Government is
 subject to restrictions as set forth in subparagraphs (a)
 and (c) of the Commercial Computer Software - Restricted
 Rights clause in FAR 52.227-19.
  
 Gaussian, Inc.
 340 Quinnipiac St., Bldg. 40, Wallingford CT 06492
  
  
 ---------------------------------------------------------------
 Warning -- This program may not be used in any manner that
 competes with the business of Gaussian, Inc. or will provide
 assistance to any competitor of Gaussian, Inc.  The licensee
 of this program is prohibited from giving any competitor of
 Gaussian, Inc. access to this program.  By using this program,
 the user acknowledges that Gaussian, Inc. is engaged in the
 business of creating and licensing software in the field of
 computational chemistry and represents and warrants to the
 licensee that it is not a competitor of Gaussian, Inc. and that
 it will not use this program in any manner prohibited above.
 ---------------------------------------------------------------
  

 Cite this work as:
 Gaussian 09, Revision B.01,
 M. J. Frisch, G. W. Trucks, H. B. Schlegel, G. E. Scuseria, 
 M. A. Robb, J. R. Cheeseman, G. Scalmani, V. Barone, B. Mennucci, 
 G. A. Petersson, H. Nakatsuji, M. Caricato, X. Li, H. P. Hratchian, 
 A. F. Izmaylov, J. Bloino, G. Zheng, J. L. Sonnenberg, M. Hada, 
 M. Ehara, K. Toyota, R. Fukuda, J. Hasegawa, M. Ishida, T. Nakajima, 
 Y. Honda, O. Kitao, H. Nakai, T. Vreven, J. A. Montgomery, Jr., 
 J. E. Peralta, F. Ogliaro, M. Bearpark, J. J. Heyd, E. Brothers, 
 K. N. Kudin, V. N. Staroverov, T. Keith, R. Kobayashi, J. Normand, 
 K. Raghavachari, A. Rendell, J. C. Burant, S. S. Iyengar, J. Tomasi, 
 M. Cossi, N. Rega, J. M. Millam, M. Klene, J. E. Knox, J. B. Cross, 
 V. Bakken, C. Adamo, J. Jaramillo, R. Gomperts, R. E. Stratmann, 
 O. Yazyev, A. J. Austin, R. Cammi, C. Pomelli, J. W. Ochterski, 
 R. L. Martin, K. Morokuma, V. G. Zakrzewski, G. A. Voth, 
 P. Salvador, J. J. Dannenberg, S. Dapprich, A. D. Daniels, 
 O. Farkas, J. B. Foresman, J. V. Ortiz, J. Cioslowski, 
 and D. J. Fox, Gaussian, Inc., Wallingford CT, 2010.
 
 ******************************************
 Gaussian 09:  EM64L-G09RevB.01 12-Aug-2010
                23-Dec-2018 
 ******************************************
 %chk=4-NO2-C6H3-IRC.chk
 %mem=500MW
 %nproc=7
 Will use up to    7 processors via shared memory.
 ----------------------------------------------------------------------
 # rb3lyp/aug-cc-pVDZ irc=(calcfc,maxcycle=1000,maxpoints=10000,stepsiz
 e=1) scf=(xqc,maxcycle=1000) nosymm
 ----------------------------------------------------------------------
 1/6=1000,10=4,14=-1,18=10,26=3,38=1,39=1,42=10000,44=3/1,23;
 2/12=2,15=1,17=6,18=5,29=1,40=1/2;
 3/5=16,7=10,11=2,16=1,25=1,30=1,71=2,74=-5,116=1/1,2,3;
 4//1;
 5/5=2,7=1000,8=3,13=1,38=5/2,8;
 8/6=4,10=90,11=11/1;
 11/6=1,8=1,9=11,15=111,16=1,31=1/1,2,10;
 10/6=1,7=6,13=1,31=1/2;
 6/7=2,8=2,9=2,10=2,28=1/1;
 7/10=1,18=20,25=1,30=1/1,2,3,16;
 1/6=1000,10=4,14=-1,18=10,39=1,42=10000,44=3/23(3);
 2/15=1,29=1/2;
 7/9=1,25=1,30=1,44=-1/16;
 99/5=20/99;
 2/15=1,29=1/2;
 3/5=16,7=10,11=2,16=1,25=1,30=1,71=2,74=-5,116=1/1,2,3;
 4/5=5,16=3/1;
 5/5=2,7=1000,8=3,13=1,38=5/2,8;
 8/6=4,10=90,11=11/1;
 11/6=1,8=1,9=11,15=111,16=1,31=1/1,2,10;
 10/6=1,7=6,13=1,31=1/2;
 7/10=1,18=20,25=1,30=1/1,2,3,16;
 1/6=1000,14=-1,18=10,39=1,42=10000,44=3/23(-8);
 2/15=1,29=1/2;
 6/7=2,8=2,9=2,10=2,19=2,28=1/1;
 7/9=1,25=1,30=1,44=-1/16;
 99/5=20,9=1/99;
 ----------
 4-NO2-C6H3
 ----------
 Symbolic Z-matrix:
 Charge =  0 Multiplicity = 1
 C                    -0.27011  -1.23292  -0.00005 
 C                     1.15237  -1.2309   -0.00005 
 C                     1.62562   0.02348   0. 
 C                     1.03645   1.29122   0.00005 
 C                    -0.35074   1.24303   0.00005 
 C                    -0.97049  -0.02442   0. 
 H                    -0.83857  -2.16259  -0.00009 
 H                     1.59361   2.22801   0.00009 
 H                    -0.95624   2.14461   0.00008 
 N                    -2.45824  -0.05162   0. 
 O                    -3.00979  -1.14659   0.00012 
 O                    -3.04905   1.02651  -0.00012 
 N                     3.21864   0.05995   0.00001 
 N                     4.28721  -0.24637  -0.00002 
 
 IRC-IRC-IRC-IRC-IRC-IRC-IRC-IRC-IRC-IRC-IRC-IRC-IRC-IRC-IRC-IRC-IRC-IRC
 ------------------------------------------------------------------------
 INPUT DATA FOR L123
 ------------------------------------------------------------------------
 GENERAL PARAMETERS:
 Follow reaction path in both directions.
 Maximum points per path      =****
 Step size                    =   0.010 bohr
 Integration scheme           = HPC                                 
    Redo corrector integration= Yes                                 
    Max correction cycles     =1000
 Initial Hessian              = CalcFC
 Hessian eveluation           = All updating
    Hessian updating method   = Bofill                              
 ------------------------------------------------------------------------
 IRC-IRC-IRC-IRC-IRC-IRC-IRC-IRC-IRC-IRC-IRC-IRC-IRC-IRC-IRC-IRC-IRC-IRC
                          Input orientation:                          
 ---------------------------------------------------------------------
 Center     Atomic      Atomic             Coordinates (Angstroms)
 Number     Number       Type             X           Y           Z
 ---------------------------------------------------------------------
      1          6           0       -0.270110   -1.232920   -0.000050
      2          6           0        1.152370   -1.230900   -0.000050
      3          6           0        1.625620    0.023480    0.000000
      4          6           0        1.036450    1.291220    0.000050
      5          6           0       -0.350740    1.243030    0.000050
      6          6           0       -0.970490   -0.024420    0.000000
      7          1           0       -0.838570   -2.162590   -0.000090
      8          1           0        1.593610    2.228010    0.000090
      9          1           0       -0.956240    2.144610    0.000080
     10          7           0       -2.458240   -0.051620    0.000000
     11          8           0       -3.009790   -1.146590    0.000120
     12          8           0       -3.049050    1.026510   -0.000120
     13          7           0        3.218640    0.059950    0.000010
     14          7           0        4.287210   -0.246370   -0.000020
 ---------------------------------------------------------------------
                    Distance matrix (angstroms):
                    1          2          3          4          5
     1  C    0.000000
     2  C    1.422481   0.000000
     3  C    2.274276   1.340684   0.000000
     4  C    2.842249   2.524783   1.397958   0.000000
     5  C    2.477263   2.894766   2.322348   1.388027   0.000000
     6  C    1.396784   2.441747   2.596552   2.399733   1.410858
     7  H    1.089694   2.198156   3.294106   3.929950   3.440382
     8  H    3.930838   3.486940   2.204762   1.089955   2.179606
     9  H    3.446518   3.979988   3.341436   2.167738   1.086037
    10  N    2.486641   3.798316   4.084550   3.743805   2.473393
    11  O    2.741040   4.163014   4.780804   4.723873   3.575029
    12  O    3.581554   4.769469   4.781068   4.094067   2.706983
    13  N    3.720603   2.436343   1.593437   2.505590   3.760339
    14  N    4.662880   3.285806   2.675235   3.596057   4.871231
                    6          7          8          9         10
     6  C    0.000000
     7  H    2.142236   0.000000
     8  H    3.412924   5.019250   0.000000
     9  H    2.169077   4.308807   2.551214   0.000000
    10  N    1.487999   2.660738   4.649108   2.660720   0.000000
    11  O    2.327662   2.397176   5.707821   3.879312   1.226037
    12  O    2.329134   3.880281   4.795612   2.372762   1.229399
    13  N    4.189980   4.626082   2.709466   4.666415   5.677976
    14  N    5.262383   5.472250   3.657600   5.762860   6.748261
                   11         12         13         14
    11  O    0.000000
    12  O    2.173455   0.000000
    13  N    6.344216   6.341780   0.000000
    14  N    7.352320   7.445867   1.111609   0.000000
 Symmetry turned off by external request.
 Stoichiometry    C6H3N3O2
 Framework group  C1[X(C6H3N3O2)]
 Deg. of freedom    36
 Full point group                 C1      NOp   1
 Rotational constants (GHZ):      3.9449112      0.5882952      0.5119494
 Standard basis: Aug-CC-pVDZ (5D, 7F)
 Integral buffers will be    131072 words long.
 Raffenetti 2 integral format.
 Two-electron integral symmetry is turned off.
   280 basis functions,   506 primitive gaussians,   302 cartesian basis functions
    38 alpha electrons       38 beta electrons
       nuclear repulsion energy       527.7235809315 Hartrees.
 NAtoms=   14 NActive=   14 NUniq=   14 SFac= 1.00D+00 NAtFMM=   50 NAOKFM=F Big=F
 One-electron integrals computed using PRISM.
 NBasis=   280 RedAO= T  NBF=   280
 NBsUse=   280 1.00D-06 NBFU=   280
 Harris functional with IExCor=  402 diagonalized for initial guess.
 ExpMin= 2.97D-02 ExpMax= 1.17D+04 ExpMxC= 4.01D+02 IAcc=3 IRadAn=         0 AccDes= 0.00D+00
 HarFok:  IExCor=  402 AccDes= 0.00D+00 IRadAn=         0 IDoV= 1
 ScaDFX=  1.000000  1.000000  1.000000  1.000000
 FoFCou: FMM=F IPFlag=           0 FMFlag=      100000 FMFlg1=           0
         NFxFlg=           0 DoJE=T BraDBF=F KetDBF=T FulRan=T
         Omega=  0.000000  0.000000  1.000000  0.000000  0.000000 ICntrl=     500 IOpCl=  0
         NMat0=    1 NMatS0=    1 NMatT0=    0 NMatD0=    1 NMtDS0=    0 NMtDT0=    0
         I1Cent=           4 NGrid=           0.
 Symmetry not used in FoFCou.
 Requested convergence on RMS density matrix=1.00D-08 within 128 cycles.
 Requested convergence on MAX density matrix=1.00D-06.
 Requested convergence on             energy=1.00D-06.
 No special actions if energy rises.
 EnCoef did     2 forward-backward iterations
 EnCoef did     2 forward-backward iterations
 SCF Done:  E(RB3LYP) =  -544.973410485     A.U. after   19 cycles
             Convg  =    0.3538D-08             -V/T =  2.0061
 QCSCF skips out because SCF is already converged.
 Range of M.O.s used for correlation:     1   280
 NBasis=   280 NAE=    38 NBE=    38 NFC=     0 NFV=     0
 NROrb=    280 NOA=    38 NOB=    38 NVA=   242 NVB=   242

 **** Warning!!: The largest alpha MO coefficient is  0.10883902D+03

 Symmetrizing basis deriv contribution to polar:
 IMax=3 JMax=2 DiffMx= 0.00D+00
 G2DrvN: will do    15 centers at a time, making    1 passes doing MaxLOS=2.
 Calling FoFCou, ICntrl=  3107 FMM=F I1Cent=   0 AccDes= 0.00D+00.
 FoFDir/FoFCou used for L=0 through L=2.
 End of G2Drv Frequency-dependent properties file   721 does not exist.
 End of G2Drv Frequency-dependent properties file   722 does not exist.
          IDoAtm=11111111111111
          Differentiating once with respect to nuclear coordinates.
          There are    45 degrees of freedom in the 1st order CPHF.  IDoFFX=5.
     39 vectors produced by pass  0 Test12= 2.04D-10 2.22D-07 XBig12= 7.62D-01 2.92D-01.
 AX will form    39 AO Fock derivatives at one time.
     39 vectors produced by pass  1 Test12= 2.04D-10 2.22D-07 XBig12= 3.65D-01 2.85D-01.
     39 vectors produced by pass  2 Test12= 2.04D-10 2.22D-07 XBig12= 5.38D-03 1.18D-02.
     39 vectors produced by pass  3 Test12= 2.04D-10 2.22D-07 XBig12= 8.62D-05 1.89D-03.
     39 vectors produced by pass  4 Test12= 2.04D-10 2.22D-07 XBig12= 3.45D-07 1.03D-04.
     20 vectors produced by pass  5 Test12= 2.04D-10 2.22D-07 XBig12= 6.05D-10 3.37D-06.
      1 vectors produced by pass  6 Test12= 2.04D-10 2.22D-07 XBig12= 3.85D-12 3.10D-07.
 Inverted reduced A of dimension   216 with in-core refinement.
 End of Minotr Frequency-dependent properties file   721 does not exist.
 End of Minotr Frequency-dependent properties file   722 does not exist.

 **********************************************************************

            Population analysis using the SCF density.

 **********************************************************************

 Alpha  occ. eigenvalues --  -19.19299 -19.19290 -14.57957 -14.54232 -14.51753
 Alpha  occ. eigenvalues --  -10.29245 -10.26941 -10.24838 -10.23592 -10.23021
 Alpha  occ. eigenvalues --  -10.18751  -1.24265  -1.20559  -1.07010  -0.91759
 Alpha  occ. eigenvalues --   -0.84608  -0.79009  -0.75566  -0.66206  -0.64994
 Alpha  occ. eigenvalues --   -0.58667  -0.57009  -0.54961  -0.54867  -0.54619
 Alpha  occ. eigenvalues --   -0.53564  -0.52606  -0.48873  -0.47701  -0.44326
 Alpha  occ. eigenvalues --   -0.41179  -0.40825  -0.32810  -0.32669  -0.30921
 Alpha  occ. eigenvalues --   -0.30755  -0.28672  -0.23124
 Alpha virt. eigenvalues --   -0.12886  -0.12166  -0.08936  -0.04848  -0.02562
 Alpha virt. eigenvalues --   -0.00484   0.00495   0.01004   0.02122   0.03239
 Alpha virt. eigenvalues --    0.03457   0.04560   0.05261   0.06507   0.06624
 Alpha virt. eigenvalues --    0.07367   0.07414   0.08211   0.09228   0.09732
 Alpha virt. eigenvalues --    0.10204   0.10534   0.11407   0.11808   0.11910
 Alpha virt. eigenvalues --    0.12310   0.12579   0.13061   0.13384   0.14386
 Alpha virt. eigenvalues --    0.15581   0.16297   0.17063   0.17402   0.17704
 Alpha virt. eigenvalues --    0.18615   0.19157   0.19519   0.20517   0.21215
 Alpha virt. eigenvalues --    0.22064   0.22139   0.22541   0.23228   0.23540
 Alpha virt. eigenvalues --    0.24661   0.25569   0.26384   0.26737   0.27141
 Alpha virt. eigenvalues --    0.27252   0.27941   0.28747   0.29169   0.29372
 Alpha virt. eigenvalues --    0.29750   0.30214   0.32082   0.32210   0.32362
 Alpha virt. eigenvalues --    0.34344   0.35704   0.35939   0.36627   0.37097
 Alpha virt. eigenvalues --    0.37150   0.39267   0.40342   0.42110   0.42921
 Alpha virt. eigenvalues --    0.43756   0.44706   0.45329   0.45812   0.47716
 Alpha virt. eigenvalues --    0.48190   0.49546   0.50122   0.51020   0.52446
 Alpha virt. eigenvalues --    0.53558   0.54362   0.54875   0.55385   0.55568
 Alpha virt. eigenvalues --    0.56680   0.59124   0.59166   0.59320   0.60235
 Alpha virt. eigenvalues --    0.61112   0.61415   0.63335   0.63749   0.65534
 Alpha virt. eigenvalues --    0.65656   0.66847   0.68950   0.69796   0.70131
 Alpha virt. eigenvalues --    0.70537   0.71329   0.71745   0.72251   0.72935
 Alpha virt. eigenvalues --    0.73111   0.74860   0.74953   0.75879   0.76200
 Alpha virt. eigenvalues --    0.77646   0.79935   0.81138   0.82493   0.83036
 Alpha virt. eigenvalues --    0.83470   0.85607   0.86798   0.87036   0.87791
 Alpha virt. eigenvalues --    0.90863   0.92033   0.92326   0.93568   0.95801
 Alpha virt. eigenvalues --    0.98614   1.02702   1.03190   1.05111   1.05253
 Alpha virt. eigenvalues --    1.06462   1.08446   1.08541   1.09079   1.10028
 Alpha virt. eigenvalues --    1.11748   1.14336   1.16167   1.18777   1.20281
 Alpha virt. eigenvalues --    1.20891   1.22694   1.24080   1.25896   1.27706
 Alpha virt. eigenvalues --    1.27869   1.29314   1.29603   1.30157   1.32136
 Alpha virt. eigenvalues --    1.34068   1.36169   1.38110   1.38558   1.40120
 Alpha virt. eigenvalues --    1.41384   1.42306   1.43890   1.44959   1.46844
 Alpha virt. eigenvalues --    1.47992   1.48250   1.49935   1.51618   1.52654
 Alpha virt. eigenvalues --    1.55794   1.56783   1.60736   1.62369   1.62935
 Alpha virt. eigenvalues --    1.63948   1.65906   1.67127   1.69060   1.69537
 Alpha virt. eigenvalues --    1.69914   1.75546   1.77109   1.79392   1.82824
 Alpha virt. eigenvalues --    1.85451   1.85725   1.86313   1.89817   1.90559
 Alpha virt. eigenvalues --    1.91983   1.94296   1.94693   1.99534   2.00121
 Alpha virt. eigenvalues --    2.01251   2.03126   2.03237   2.04584   2.07145
 Alpha virt. eigenvalues --    2.08929   2.14626   2.18106   2.18994   2.19435
 Alpha virt. eigenvalues --    2.20813   2.24178   2.26598   2.28937   2.29779
 Alpha virt. eigenvalues --    2.31877   2.33580   2.33883   2.37645   2.41908
 Alpha virt. eigenvalues --    2.44988   2.48539   2.50557   2.56247   2.58494
 Alpha virt. eigenvalues --    2.65040   2.73291   2.74960   2.78173   2.81611
 Alpha virt. eigenvalues --    2.85365   2.87565   2.95286   2.99958   3.07220
 Alpha virt. eigenvalues --    3.10566   3.16393   3.28070   3.28164   3.28581
 Alpha virt. eigenvalues --    3.30535   3.36163   3.38768   3.39841   3.41265
 Alpha virt. eigenvalues --    3.46239   3.58779   3.59826   3.77812   3.80175
 Alpha virt. eigenvalues --    3.83927   4.11884
          Condensed to atoms (all electrons):
              1          2          3          4          5          6
     1  C    9.719188   0.009326   0.076061  -2.099481  -0.567951  -1.488716
     2  C    0.009326  10.881075  -0.159004  -0.930964  -1.675921  -0.180008
     3  C    0.076061  -0.159004  10.417432  -4.352022   0.965607  -2.457726
     4  C   -2.099481  -0.930964  -4.352022  17.389354  -4.690739   1.620442
     5  C   -0.567951  -1.675921   0.965607  -4.690739  16.152608  -4.261596
     6  C   -1.488716  -0.180008  -2.457726   1.620442  -4.261596  11.337331
     7  H   -0.802672  -0.183539  -0.050484   0.054974   0.090874   0.246939
     8  H    0.176527  -0.000206   1.369072  -2.265409   0.851008  -0.730389
     9  H    0.185013   0.069177  -0.660135   0.621939  -2.268488   1.312586
    10  N    0.108391  -0.076746   0.123001  -0.221217   0.185403  -0.508814
    11  O   -0.052112  -0.055092   0.006835  -0.047667   0.064270   0.142446
    12  O   -0.034583  -0.008509   0.008864  -0.055551   0.036121   0.119910
    13  N   -0.027220  -0.225922   0.130695   0.260337  -0.207370   0.052279
    14  N   -0.048637   0.142051  -0.300956  -0.182373  -0.038121   0.042002
              7          8          9         10         11         12
     1  C   -0.802672   0.176527   0.185013   0.108391  -0.052112  -0.034583
     2  C   -0.183539  -0.000206   0.069177  -0.076746  -0.055092  -0.008509
     3  C   -0.050484   1.369072  -0.660135   0.123001   0.006835   0.008864
     4  C    0.054974  -2.265409   0.621939  -0.221217  -0.047667  -0.055551
     5  C    0.090874   0.851008  -2.268488   0.185403   0.064270   0.036121
     6  C    0.246939  -0.730389   1.312586  -0.508814   0.142446   0.119910
     7  H    2.463986   0.007763  -0.011534  -0.088479  -0.023675  -0.010852
     8  H    0.007763   2.687777  -0.217331   0.021367  -0.001379  -0.002839
     9  H   -0.011534  -0.217331   2.964813  -0.143408  -0.009583  -0.015901
    10  N   -0.088479   0.021367  -0.143408   7.786991  -0.453725  -0.440741
    11  O   -0.023675  -0.001379  -0.009583  -0.453725   9.155510  -0.054144
    12  O   -0.010852  -0.002839  -0.015901  -0.440741  -0.054144   9.141858
    13  N   -0.006032  -0.123331  -0.006730  -0.005944  -0.000210   0.000085
    14  N    0.006307  -0.013813  -0.001376  -0.000989  -0.000052  -0.000016
             13         14
     1  C   -0.027220  -0.048637
     2  C   -0.225922   0.142051
     3  C    0.130695  -0.300956
     4  C    0.260337  -0.182373
     5  C   -0.207370  -0.038121
     6  C    0.052279   0.042002
     7  H   -0.006032   0.006307
     8  H   -0.123331  -0.013813
     9  H   -0.006730  -0.001376
    10  N   -0.005944  -0.000989
    11  O   -0.000210  -0.000052
    12  O    0.000085  -0.000016
    13  N    8.065349  -1.382727
    14  N   -1.382727   9.483675
 Mulliken atomic charges:
              1
     1  C    0.846866
     2  C   -1.605721
     3  C    0.882762
     4  C    0.898375
     5  C    1.364295
     6  C    0.753313
     7  H   -0.693578
     8  H   -0.758818
     9  H   -0.819044
    10  N    0.714911
    11  O   -0.671423
    12  O   -0.683702
    13  N    0.476741
    14  N   -0.704977
 Sum of Mulliken atomic charges =   0.00000
 Mulliken charges with hydrogens summed into heavy atoms:
              1
     1  C    0.153288
     2  C   -1.605721
     3  C    0.882762
     4  C    0.139557
     5  C    0.545251
     6  C    0.753313
    10  N    0.714911
    11  O   -0.671423
    12  O   -0.683702
    13  N    0.476741
    14  N   -0.704977
 Sum of Mulliken charges with hydrogens summed into heavy atoms =   0.00000
 APT atomic charges:
              1
     1  C    0.021603
     2  C   -0.068330
     3  C    0.165446
     4  C    0.466468
     5  C    0.451882
     6  C    0.331238
     7  H   -0.126446
     8  H   -0.229605
     9  H   -0.193343
    10  N    0.628810
    11  O   -0.512826
    12  O   -0.525031
    13  N   -1.707374
    14  N    1.297507
 Sum of APT charges=   0.00000
 APT Atomic charges with hydrogens summed into heavy atoms:
              1
     1  C   -0.104842
     2  C   -0.068330
     3  C    0.165446
     4  C    0.236863
     5  C    0.258539
     6  C    0.331238
     7  H    0.000000
     8  H    0.000000
     9  H    0.000000
    10  N    0.628810
    11  O   -0.512826
    12  O   -0.525031
    13  N   -1.707374
    14  N    1.297507
 Sum of APT charges=   0.00000
 Electronic spatial extent (au):  <R**2>=           1937.7441
 Charge=              0.0000 electrons
 Dipole moment (field-independent basis, Debye):
    X=              5.4992    Y=              3.1064    Z=              0.0001  Tot=              6.3159
 Quadrupole moment (field-independent basis, Debye-Ang):
   XX=            -66.5045   YY=            -63.3770   ZZ=            -61.7592
   XY=              5.6265   XZ=              0.0002   YZ=              0.0006
 Traceless Quadrupole moment (field-independent basis, Debye-Ang):
   XX=             -2.6243   YY=              0.5032   ZZ=              2.1210
   XY=              5.6265   XZ=              0.0002   YZ=              0.0006
 Octapole moment (field-independent basis, Debye-Ang**2):
  XXX=             70.6510  YYY=             19.0442  ZZZ=              0.0001  XYY=             -3.2803
  XXY=             12.1407  XXZ=              0.0007  XZZ=             -6.8115  YZZ=              0.6108
  YYZ=              0.0006  XYZ=             -0.0018
 Hexadecapole moment (field-independent basis, Debye-Ang**3):
 XXXX=          -2108.5701 YYYY=           -399.2863 ZZZZ=            -64.6127 XXXY=             28.0992
 XXXZ=              0.0019 YYYX=             31.5635 YYYZ=              0.0006 ZZZX=              0.0008
 ZZZY=             -0.0015 XXYY=           -428.1970 XXZZ=           -330.1148 YYZZ=            -84.2365
 XXYZ=              0.0035 YYXZ=              0.0015 ZZXY=              2.4917
 N-N= 5.277235809315D+02 E-N=-2.326612200807D+03  KE= 5.416929023727D+02
  Exact polarizability:   0.000   0.000   0.000   0.000   0.000   0.000
 Approx polarizability: 282.884  17.541 226.400   0.001  -0.001  88.634
 Calling FoFJK, ICntrl=    100147 FMM=F ISym2X=0 I1Cent= 0 IOpClX= 0 NMat=1 NMatS=1 NMatT=0.
 -------------------------------------------------------------------
 Center     Atomic                   Forces (Hartrees/Bohr)
 Number     Number              X              Y              Z
 -------------------------------------------------------------------
      1        6          -0.000000131    0.000006136   -0.000000205
      2        6          -0.000001316   -0.000004578    0.000000296
      3        6          -0.000002442    0.000001238   -0.000000145
      4        6           0.000007151   -0.000007904    0.000000787
      5        6          -0.000002358    0.000007496   -0.000000994
      6        6          -0.000004538   -0.000004439    0.000000443
      7        1          -0.000005293    0.000000038   -0.000000067
      8        1           0.000005027    0.000000345   -0.000000133
      9        1           0.000005283   -0.000000553    0.000000138
     10        7           0.000006332    0.000005031    0.000000537
     11        8          -0.000004573    0.000000357   -0.000000326
     12        8          -0.000000148    0.000011131   -0.000000098
     13        7          -0.000007447   -0.000003926   -0.000000451
     14        7           0.000004456   -0.000010372    0.000000217
 -------------------------------------------------------------------
 Cartesian Forces:  Max     0.000011131 RMS     0.000004300
 IRC-IRC-IRC-IRC-IRC-IRC-IRC-IRC-IRC-IRC-IRC-IRC-IRC-IRC-IRC-IRC-IRC-IRC
          ******** Start new reaction path calculation ********
 Supplied step size of   0.0100 bohr.
    Integration on MW PES will use step size of   0.0358 sqrt(amu)*bohr.
 Point Number:   0          Path Number:   1
 Calculating another point on the path.
 IRC-IRC-IRC-IRC-IRC-IRC-IRC-IRC-IRC-IRC-IRC-IRC-IRC-IRC-IRC-IRC-IRC-IRC
                          Input orientation:                          
 ---------------------------------------------------------------------
 Center     Atomic      Atomic             Coordinates (Angstroms)
 Number     Number       Type             X           Y           Z
 ---------------------------------------------------------------------
      1          6           0       -0.271185   -1.217812   -0.000050
      2          6           0        1.151582   -1.216812   -0.000050
      3          6           0        1.626529    0.038626    0.000000
      4          6           0        1.035090    1.306067    0.000050
      5          6           0       -0.351930    1.257851    0.000050
      6          6           0       -0.971742   -0.009681    0.000000
      7          1           0       -0.839608   -2.147531   -0.000090
      8          1           0        1.591595    2.243285    0.000090
      9          1           0       -0.957447    2.159420    0.000080
     10          7           0       -2.459758   -0.036900    0.000000
     11          8           0       -3.011297   -1.131847    0.000120
     12          8           0       -3.050537    1.041240   -0.000120
     13          7           0        3.213949    0.072825    0.000010
     14          7           0        4.283663   -0.230343   -0.000019
 ---------------------------------------------------------------------
                    Distance matrix (angstroms):
                    1          2          3          4          5
     1  C    0.000000
     2  C    1.422767   0.000000
     3  C    2.275952   1.342275   0.000000
     4  C    2.841887   2.525567   1.398644   0.000000
     5  C    2.476979   2.895602   2.323965   1.387859   0.000000
     6  C    1.396553   2.442473   2.598721   2.399702   1.410959
     7  H    1.089717   2.197971   3.295621   3.929610   3.440125
     8  H    3.930539   3.487962   2.204935   1.089988   2.179075
     9  H    3.446252   3.980823   3.342858   2.167583   1.086037
    10  N    2.486846   3.799206   4.086985   3.743998   2.473725
    11  O    2.741460   4.163746   4.783246   4.724053   3.575316
    12  O    3.581635   4.770388   4.783323   4.094201   2.707286
    13  N    3.716437   2.432390   1.587788   2.503659   3.757630
    14  N    4.660658   3.283756   2.670713   3.593575   4.868619
                    6          7          8          9         10
     6  C    0.000000
     7  H    2.141930   0.000000
     8  H    3.412704   5.018965   0.000000
     9  H    2.169148   4.308563   2.550421   0.000000
    10  N    1.488264   2.660760   4.648946   2.660970   0.000000
    11  O    2.327883   2.397467   5.707725   3.879528   1.226011
    12  O    2.329339   3.880266   4.795237   2.373047   1.229393
    13  N    4.186504   4.621829   2.709783   4.664163   5.674767
    14  N    5.260036   5.470239   3.655963   5.760226   6.746195
                   11         12         13         14
    11  O    0.000000
    12  O    2.173441   0.000000
    13  N    6.340735   6.338896   0.000000
    14  N    7.350453   7.443616   1.111845   0.000000
 Symmetry turned off by external request.
 Stoichiometry    C6H3N3O2
 Framework group  C1[X(C6H3N3O2)]
 Deg. of freedom    36
 Full point group                 C1      NOp   1
 Rotational constants (GHZ):      3.9448170      0.5885893      0.5121706
 Standard basis: Aug-CC-pVDZ (5D, 7F)
 Integral buffers will be    131072 words long.
 Raffenetti 2 integral format.
 Two-electron integral symmetry is turned off.
   280 basis functions,   506 primitive gaussians,   302 cartesian basis functions
    38 alpha electrons       38 beta electrons
       nuclear repulsion energy       527.7784495409 Hartrees.
 NAtoms=   14 NActive=   14 NUniq=   14 SFac= 1.00D+00 NAtFMM=   50 NAOKFM=F Big=F
 One-electron integrals computed using PRISM.
 NBasis=   280 RedAO= T  NBF=   280
 NBsUse=   280 1.00D-06 NBFU=   280
 Initial guess read from the read-write file.
 B after Tr=     0.000000    0.000000    0.000000
         Rot=    1.000000    0.000000    0.000000    0.000000 Ang=   0.00 deg.
 Harris functional with IExCor=  402 diagonalized for initial guess.
 ExpMin= 2.97D-02 ExpMax= 1.17D+04 ExpMxC= 4.01D+02 IAcc=3 IRadAn=         0 AccDes= 0.00D+00
 HarFok:  IExCor=  402 AccDes= 0.00D+00 IRadAn=         0 IDoV= 1
 ScaDFX=  1.000000  1.000000  1.000000  1.000000
 FoFCou: FMM=F IPFlag=           0 FMFlag=      100000 FMFlg1=           0
         NFxFlg=           0 DoJE=T BraDBF=F KetDBF=T FulRan=T
         Omega=  0.000000  0.000000  1.000000  0.000000  0.000000 ICntrl=     500 IOpCl=  0
         NMat0=    1 NMatS0=    1 NMatT0=    0 NMatD0=    1 NMtDS0=    0 NMtDT0=    0
         I1Cent=           4 NGrid=           0.
 Symmetry not used in FoFCou.
 Requested convergence on RMS density matrix=1.00D-08 within 128 cycles.
 Requested convergence on MAX density matrix=1.00D-06.
 Requested convergence on             energy=1.00D-06.
 No special actions if energy rises.
 SCF Done:  E(RB3LYP) =  -544.973414729     A.U. after   12 cycles
             Convg  =    0.8200D-08             -V/T =  2.0061
 QCSCF skips out because SCF is already converged.
 Range of M.O.s used for correlation:     1   280
 NBasis=   280 NAE=    38 NBE=    38 NFC=     0 NFV=     0
 NROrb=    280 NOA=    38 NOB=    38 NVA=   242 NVB=   242

 **** Warning!!: The largest alpha MO coefficient is  0.10879422D+03

 Symmetrizing basis deriv contribution to polar:
 IMax=3 JMax=2 DiffMx= 0.00D+00
 Calling FoFJK, ICntrl=      2147 FMM=F ISym2X=0 I1Cent= 0 IOpClX= 0 NMat=1 NMatS=1 NMatT=0.
 -------------------------------------------------------------------
 Center     Atomic                   Forces (Hartrees/Bohr)
 Number     Number              X              Y              Z
 -------------------------------------------------------------------
      1        6           0.000071219    0.000071970   -0.000000205
      2        6           0.000140296   -0.000114195    0.000000292
      3        6           0.000453341    0.000073044   -0.000000138
      4        6           0.000088415    0.000034189    0.000000789
      5        6           0.000036020    0.000033772   -0.000000991
      6        6          -0.000024247   -0.000010626    0.000000447
      7        1          -0.000001448    0.000000310   -0.000000068
      8        1           0.000003089    0.000007886   -0.000000133
      9        1           0.000007157    0.000002514    0.000000138
     10        7           0.000022496    0.000001665    0.000000540
     11        8          -0.000020674    0.000003947   -0.000000324
     12        8          -0.000039175    0.000005746   -0.000000103
     13        7          -0.000483740   -0.000331313   -0.000000484
     14        7          -0.000252749    0.000221093    0.000000241
 -------------------------------------------------------------------
 Cartesian Forces:  Max     0.000483740 RMS     0.000131398
 IRC-IRC-IRC-IRC-IRC-IRC-IRC-IRC-IRC-IRC-IRC-IRC-IRC-IRC-IRC-IRC-IRC-IRC
 Pt  1 Step number   1 out of a maximum of1000
 CORRECTOR INTEGRATION CONVERGENCE:
   Recorrection delta-x convergence threshold:    0.010000
   Delta-x Convergence Met
 Point Number:   1          Path Number:   1
   CHANGE IN THE REACTION COORDINATE =    0.03578
   NET REACTION COORDINATE UP TO THIS POINT =    0.03578
  # OF POINTS ALONG THE PATH =   1
  # OF STEPS =   1

 Calculating another point on the path.
 IRC-IRC-IRC-IRC-IRC-IRC-IRC-IRC-IRC-IRC-IRC-IRC-IRC-IRC-IRC-IRC-IRC-IRC
                          Input orientation:                          
 ---------------------------------------------------------------------
 Center     Atomic      Atomic             Coordinates (Angstroms)
 Number     Number       Type             X           Y           Z
 ---------------------------------------------------------------------
      1          6           0       -0.270650   -1.217305   -0.000050
      2          6           0        1.152508   -1.217451   -0.000049
      3          6           0        1.629452    0.039054    0.000001
      4          6           0        1.035532    1.306196    0.000052
      5          6           0       -0.351448    1.257986    0.000048
      6          6           0       -0.971559   -0.009606    0.000002
      7          1           0       -0.839045   -2.147094   -0.000091
      8          1           0        1.591345    2.243878    0.000089
      9          1           0       -0.956832    2.159654    0.000080
     10          7           0       -2.459843   -0.036879    0.000002
     11          8           0       -3.011389   -1.131810    0.000119
     12          8           0       -3.050721    1.041226   -0.000119
     13          7           0        3.211151    0.070791    0.000008
     14          7           0        4.282101   -0.228982   -0.000018
 ---------------------------------------------------------------------
                    Distance matrix (angstroms):
                    1          2          3          4          5
     1  C    0.000000
     2  C    1.423157   0.000000
     3  C    2.277899   1.343979   0.000000
     4  C    2.841509   2.526357   1.399426   0.000000
     5  C    2.476610   2.896493   2.325890   1.387818   0.000000
     6  C    1.396356   2.443470   2.601466   2.399948   1.411144
     7  H    1.089761   2.197844   3.297381   3.929281   3.439814
     8  H    3.930243   3.489036   2.205153   1.090034   2.178630
     9  H    3.445969   3.981727   3.344520   2.167465   1.086046
    10  N    2.487162   3.800372   4.090000   3.744529   2.474269
    11  O    2.742073   4.164778   4.786265   4.724558   3.575810
    12  O    3.581865   4.771661   4.786269   4.094835   2.707962
    13  N    3.712429   2.428494   1.582017   2.501908   3.755202
    14  N    4.658790   3.281985   2.666156   3.591237   4.866297
                    6          7          8          9         10
     6  C    0.000000
     7  H    2.141591   0.000000
     8  H    3.412721   5.018708   0.000000
     9  H    2.169311   4.308359   2.549569   0.000000
    10  N    1.488534   2.660825   4.649083   2.661541   0.000000
    11  O    2.328143   2.397891   5.707927   3.880070   1.226000
    12  O    2.329627   3.880321   4.795326   2.373869   1.229409
    13  N    4.183483   4.617695   2.710365   4.662128   5.672016
    14  N    5.258238   5.468573   3.654477   5.757778   6.744680
                   11         12         13         14
    11  O    0.000000
    12  O    2.173391   0.000000
    13  N    6.337686   6.336622   0.000000
    14  N    7.349157   7.442023   1.112114   0.000000
 Symmetry turned off by external request.
 Stoichiometry    C6H3N3O2
 Framework group  C1[X(C6H3N3O2)]
 Deg. of freedom    36
 Full point group                 C1      NOp   1
 Rotational constants (GHZ):      3.9448378      0.5887746      0.5123112
 Standard basis: Aug-CC-pVDZ (5D, 7F)
 Integral buffers will be    131072 words long.
 Raffenetti 2 integral format.
 Two-electron integral symmetry is turned off.
   280 basis functions,   506 primitive gaussians,   302 cartesian basis functions
    38 alpha electrons       38 beta electrons
       nuclear repulsion energy       527.8056701649 Hartrees.
 NAtoms=   14 NActive=   14 NUniq=   14 SFac= 1.00D+00 NAtFMM=   50 NAOKFM=F Big=F
 One-electron integrals computed using PRISM.
 NBasis=   280 RedAO= T  NBF=   280
 NBsUse=   280 1.00D-06 NBFU=   280
 Initial guess read from the read-write file.
 B after Tr=     0.000000    0.000000    0.000000
         Rot=    1.000000    0.000000    0.000000    0.000000 Ang=   0.00 deg.
 Harris functional with IExCor=  402 diagonalized for initial guess.
 ExpMin= 2.97D-02 ExpMax= 1.17D+04 ExpMxC= 4.01D+02 IAcc=3 IRadAn=         0 AccDes= 0.00D+00
 HarFok:  IExCor=  402 AccDes= 0.00D+00 IRadAn=         0 IDoV= 1
 ScaDFX=  1.000000  1.000000  1.000000  1.000000
 FoFCou: FMM=F IPFlag=           0 FMFlag=      100000 FMFlg1=           0
         NFxFlg=           0 DoJE=T BraDBF=F KetDBF=T FulRan=T
         Omega=  0.000000  0.000000  1.000000  0.000000  0.000000 ICntrl=     500 IOpCl=  0
         NMat0=    1 NMatS0=    1 NMatT0=    0 NMatD0=    1 NMtDS0=    0 NMtDT0=    0
         I1Cent=           4 NGrid=           0.
 Symmetry not used in FoFCou.
 Requested convergence on RMS density matrix=1.00D-08 within 128 cycles.
 Requested convergence on MAX density matrix=1.00D-06.
 Requested convergence on             energy=1.00D-06.
 No special actions if energy rises.
 SCF Done:  E(RB3LYP) =  -544.973427093     A.U. after   12 cycles
             Convg  =    0.7305D-08             -V/T =  2.0061
 QCSCF skips out because SCF is already converged.
 Range of M.O.s used for correlation:     1   280
 NBasis=   280 NAE=    38 NBE=    38 NFC=     0 NFV=     0
 NROrb=    280 NOA=    38 NOB=    38 NVA=   242 NVB=   242

 **** Warning!!: The largest alpha MO coefficient is  0.10865994D+03

 Symmetrizing basis deriv contribution to polar:
 IMax=3 JMax=2 DiffMx= 0.00D+00
 Calling FoFJK, ICntrl=      2147 FMM=F ISym2X=0 I1Cent= 0 IOpClX= 0 NMat=1 NMatS=1 NMatT=0.
 -------------------------------------------------------------------
 Center     Atomic                   Forces (Hartrees/Bohr)
 Number     Number              X              Y              Z
 -------------------------------------------------------------------
      1        6           0.000171990    0.000124948    0.000000071
      2        6           0.000235576   -0.000183536    0.000000011
      3        6           0.000736205    0.000129610    0.000000037
      4        6           0.000070354    0.000023173   -0.000000020
      5        6           0.000179106    0.000022976   -0.000000053
      6        6           0.000157231    0.000023269    0.000000052
      7        1           0.000019446    0.000010474    0.000000005
      8        1          -0.000013557    0.000012370   -0.000000004
      9        1           0.000009864    0.000001642   -0.000000008
     10        7           0.000000713    0.000007300    0.000000021
     11        8           0.000042954    0.000013008   -0.000000131
     12        8           0.000047582    0.000003832    0.000000080
     13        7          -0.000967115   -0.000664310   -0.000000201
     14        7          -0.000690349    0.000475243    0.000000139
 -------------------------------------------------------------------
 Cartesian Forces:  Max     0.000967115 RMS     0.000260076
 IRC-IRC-IRC-IRC-IRC-IRC-IRC-IRC-IRC-IRC-IRC-IRC-IRC-IRC-IRC-IRC-IRC-IRC
 Pt  2 Step number   1 out of a maximum of1000
 CORRECTOR INTEGRATION CONVERGENCE:
   Recorrection delta-x convergence threshold:    0.010000
   Delta-x Convergence Met
 Point Number:   2          Path Number:   1
   CHANGE IN THE REACTION COORDINATE =    0.03582
   NET REACTION COORDINATE UP TO THIS POINT =    0.07159
  # OF POINTS ALONG THE PATH =   2
  # OF STEPS =   1

 Calculating another point on the path.
 IRC-IRC-IRC-IRC-IRC-IRC-IRC-IRC-IRC-IRC-IRC-IRC-IRC-IRC-IRC-IRC-IRC-IRC
                          Input orientation:                          
 ---------------------------------------------------------------------
 Center     Atomic      Atomic             Coordinates (Angstroms)
 Number     Number       Type             X           Y           Z
 ---------------------------------------------------------------------
      1          6           0       -0.270080   -1.216914   -0.000049
      2          6           0        1.153341   -1.218100   -0.000049
      3          6           0        1.631972    0.039474    0.000001
      4          6           0        1.035828    1.306318    0.000052
      5          6           0       -0.350941    1.258086    0.000048
      6          6           0       -0.971111   -0.009571    0.000002
      7          1           0       -0.838440   -2.146746   -0.000091
      8          1           0        1.590971    2.244425    0.000088
      9          1           0       -0.956379    2.159724    0.000080
     10          7           0       -2.459723   -0.036861    0.000002
     11          8           0       -3.011247   -1.131770    0.000119
     12          8           0       -3.050547    1.041257   -0.000119
     13          7           0        3.208115    0.068929    0.000008
     14          7           0        4.280176   -0.227646   -0.000018
 ---------------------------------------------------------------------
                    Distance matrix (angstroms):
                    1          2          3          4          5
     1  C    0.000000
     2  C    1.423421   0.000000
     3  C    2.279542   1.345577   0.000000
     4  C    2.841144   2.527152   1.400101   0.000000
     5  C    2.476321   2.897302   2.327436   1.387607   0.000000
     6  C    1.396110   2.444144   2.603545   2.399869   1.411228
     7  H    1.089780   2.197629   3.298862   3.928935   3.439554
     8  H    3.929934   3.490072   2.205333   1.090059   2.178047
     9  H    3.445678   3.982538   3.345896   2.167299   1.086051
    10  N    2.487382   3.801258   4.092407   3.744730   2.474641
    11  O    2.742489   4.165483   4.788663   4.724731   3.576120
    12  O    3.581946   4.772564   4.788481   4.094962   2.708300
    13  N    3.708265   2.424569   1.576418   2.499993   3.752462
    14  N    4.656552   3.279954   2.661642   3.588711   4.863604
                    6          7          8          9         10
     6  C    0.000000
     7  H    2.141289   0.000000
     8  H    3.412443   5.018408   0.000000
     9  H    2.169345   4.308085   2.548757   0.000000
    10  N    1.488862   2.660860   4.648913   2.661772   0.000000
    11  O    2.328408   2.398180   5.707811   3.880260   1.225971
    12  O    2.329870   3.880307   4.794925   2.374134   1.229394
    13  N    4.179963   4.613439   2.710708   4.659875   5.668825
    14  N    5.255814   5.466551   3.652802   5.755088   6.742599
                   11         12         13         14
    11  O    0.000000
    12  O    2.173382   0.000000
    13  N    6.334204   6.333741   0.000000
    14  N    7.347264   7.439732   1.112328   0.000000
 Symmetry turned off by external request.
 Stoichiometry    C6H3N3O2
 Framework group  C1[X(C6H3N3O2)]
 Deg. of freedom    36
 Full point group                 C1      NOp   1
 Rotational constants (GHZ):      3.9447359      0.5890731      0.5125355
 Standard basis: Aug-CC-pVDZ (5D, 7F)
 Integral buffers will be    131072 words long.
 Raffenetti 2 integral format.
 Two-electron integral symmetry is turned off.
   280 basis functions,   506 primitive gaussians,   302 cartesian basis functions
    38 alpha electrons       38 beta electrons
       nuclear repulsion energy       527.8631632975 Hartrees.
 NAtoms=   14 NActive=   14 NUniq=   14 SFac= 1.00D+00 NAtFMM=   50 NAOKFM=F Big=F
 One-electron integrals computed using PRISM.
 NBasis=   280 RedAO= T  NBF=   280
 NBsUse=   280 1.00D-06 NBFU=   280
 Initial guess read from the read-write file.
 B after Tr=     0.000000    0.000000    0.000000
         Rot=    1.000000    0.000000    0.000000    0.000000 Ang=   0.00 deg.
 Harris functional with IExCor=  402 diagonalized for initial guess.
 ExpMin= 2.97D-02 ExpMax= 1.17D+04 ExpMxC= 4.01D+02 IAcc=3 IRadAn=         0 AccDes= 0.00D+00
 HarFok:  IExCor=  402 AccDes= 0.00D+00 IRadAn=         0 IDoV= 1
 ScaDFX=  1.000000  1.000000  1.000000  1.000000
 FoFCou: FMM=F IPFlag=           0 FMFlag=      100000 FMFlg1=           0
         NFxFlg=           0 DoJE=T BraDBF=F KetDBF=T FulRan=T
         Omega=  0.000000  0.000000  1.000000  0.000000  0.000000 ICntrl=     500 IOpCl=  0
         NMat0=    1 NMatS0=    1 NMatT0=    0 NMatD0=    1 NMtDS0=    0 NMtDT0=    0
         I1Cent=           4 NGrid=           0.
 Symmetry not used in FoFCou.
 Requested convergence on RMS density matrix=1.00D-08 within 128 cycles.
 Requested convergence on MAX density matrix=1.00D-06.
 Requested convergence on             energy=1.00D-06.
 No special actions if energy rises.
 SCF Done:  E(RB3LYP) =  -544.973447912     A.U. after   12 cycles
             Convg  =    0.6894D-08             -V/T =  2.0061
 QCSCF skips out because SCF is already converged.
 Range of M.O.s used for correlation:     1   280
 NBasis=   280 NAE=    38 NBE=    38 NFC=     0 NFV=     0
 NROrb=    280 NOA=    38 NOB=    38 NVA=   242 NVB=   242

 **** Warning!!: The largest alpha MO coefficient is  0.10858166D+03


 **** Warning!!: The smallest alpha delta epsilon is  0.99205601D-01

 Symmetrizing basis deriv contribution to polar:
 IMax=3 JMax=2 DiffMx= 0.00D+00
 Calling FoFJK, ICntrl=      2147 FMM=F ISym2X=0 I1Cent= 0 IOpClX= 0 NMat=1 NMatS=1 NMatT=0.
 -------------------------------------------------------------------
 Center     Atomic                   Forces (Hartrees/Bohr)
 Number     Number              X              Y              Z
 -------------------------------------------------------------------
      1        6           0.000237462    0.000170219    0.000000074
      2        6           0.000362630   -0.000293447    0.000000008
      3        6           0.001117705    0.000191466    0.000000029
      4        6           0.000137461    0.000061191   -0.000000033
      5        6           0.000211857    0.000049552   -0.000000030
      6        6           0.000170561    0.000011838    0.000000041
      7        1           0.000023218    0.000013342    0.000000008
      8        1          -0.000013751    0.000021835   -0.000000006
      9        1           0.000019740    0.000003580   -0.000000005
     10        7           0.000053584    0.000006640    0.000000011
     11        8           0.000069765    0.000020437   -0.000000125
     12        8           0.000075152    0.000011634    0.000000082
     13        7          -0.001495786   -0.000957466   -0.000000200
     14        7          -0.000969597    0.000689178    0.000000147
 -------------------------------------------------------------------
 Cartesian Forces:  Max     0.001495786 RMS     0.000386470
 IRC-IRC-IRC-IRC-IRC-IRC-IRC-IRC-IRC-IRC-IRC-IRC-IRC-IRC-IRC-IRC-IRC-IRC
 Pt  3 Step number   1 out of a maximum of1000
 CORRECTOR INTEGRATION CONVERGENCE:
   Recorrection delta-x convergence threshold:    0.010000
   Delta-x Convergence Met
 Point Number:   3          Path Number:   1
   CHANGE IN THE REACTION COORDINATE =    0.03582
   NET REACTION COORDINATE UP TO THIS POINT =    0.10742
  # OF POINTS ALONG THE PATH =   3
  # OF STEPS =   1

 Calculating another point on the path.
 IRC-IRC-IRC-IRC-IRC-IRC-IRC-IRC-IRC-IRC-IRC-IRC-IRC-IRC-IRC-IRC-IRC-IRC
                          Input orientation:                          
 ---------------------------------------------------------------------
 Center     Atomic      Atomic             Coordinates (Angstroms)
 Number     Number       Type             X           Y           Z
 ---------------------------------------------------------------------
      1          6           0       -0.269532   -1.216525   -0.000049
      2          6           0        1.154180   -1.218766   -0.000049
      3          6           0        1.634537    0.039901    0.000001
      4          6           0        1.036142    1.306462    0.000052
      5          6           0       -0.350455    1.258195    0.000048
      6          6           0       -0.970719   -0.009542    0.000002
      7          1           0       -0.837849   -2.146406   -0.000091
      8          1           0        1.590606    2.245008    0.000088
      9          1           0       -0.955886    2.159838    0.000080
     10          7           0       -2.459609   -0.036847    0.000002
     11          8           0       -3.011118   -1.131735    0.000119
     12          8           0       -3.050406    1.041278   -0.000119
     13          7           0        3.205110    0.067052    0.000007
     14          7           0        4.278297   -0.226293   -0.000018
 ---------------------------------------------------------------------
                    Distance matrix (angstroms):
                    1          2          3          4          5
     1  C    0.000000
     2  C    1.423714   0.000000
     3  C    2.281246   1.347213   0.000000
     4  C    2.840818   2.527985   1.400805   0.000000
     5  C    2.476043   2.898148   2.329042   1.387437   0.000000
     6  C    1.395877   2.444876   2.605725   2.399866   1.411342
     7  H    1.089799   2.197430   3.300398   3.928631   3.439311
     8  H    3.929672   3.491159   2.205545   1.090091   2.177502
     9  H    3.445419   3.983383   3.347301   2.167124   1.086051
    10  N    2.487585   3.802157   4.094865   3.744964   2.475008
    11  O    2.742898   4.166208   4.791121   4.724947   3.576436
    12  O    3.582030   4.773504   4.790767   4.095143   2.708650
    13  N    3.704147   2.420669   1.570808   2.498111   3.749782
    14  N    4.654386   3.277973   2.657128   3.586210   4.860972
                    6          7          8          9         10
     6  C    0.000000
     7  H    2.140990   0.000000
     8  H    3.412240   5.018157   0.000000
     9  H    2.169431   4.307861   2.547915   0.000000
    10  N    1.489140   2.660891   4.648774   2.662069   0.000000
    11  O    2.328636   2.398469   5.707737   3.880520   1.225945
    12  O    2.330091   3.880301   4.794576   2.374488   1.229388
    13  N    4.176531   4.609221   2.711109   4.657643   5.665671
    14  N    5.253489   5.464594   3.651166   5.752416   6.740568
                   11         12         13         14
    11  O    0.000000
    12  O    2.173368   0.000000
    13  N    6.330765   6.330924   0.000000
    14  N    7.345434   7.437515   1.112557   0.000000
 Symmetry turned off by external request.
 Stoichiometry    C6H3N3O2
 Framework group  C1[X(C6H3N3O2)]
 Deg. of freedom    36
 Full point group                 C1      NOp   1
 Rotational constants (GHZ):      3.9445786      0.5893598      0.5127498
 Standard basis: Aug-CC-pVDZ (5D, 7F)
 Integral buffers will be    131072 words long.
 Raffenetti 2 integral format.
 Two-electron integral symmetry is turned off.
   280 basis functions,   506 primitive gaussians,   302 cartesian basis functions
    38 alpha electrons       38 beta electrons
       nuclear repulsion energy       527.9164937466 Hartrees.
 NAtoms=   14 NActive=   14 NUniq=   14 SFac= 1.00D+00 NAtFMM=   50 NAOKFM=F Big=F
 One-electron integrals computed using PRISM.
 NBasis=   280 RedAO= T  NBF=   280
 NBsUse=   280 1.00D-06 NBFU=   280
 Initial guess read from the read-write file.
 B after Tr=     0.000000    0.000000    0.000000
         Rot=    1.000000    0.000000    0.000000    0.000000 Ang=   0.00 deg.
 Harris functional with IExCor=  402 diagonalized for initial guess.
 ExpMin= 2.97D-02 ExpMax= 1.17D+04 ExpMxC= 4.01D+02 IAcc=3 IRadAn=         0 AccDes= 0.00D+00
 HarFok:  IExCor=  402 AccDes= 0.00D+00 IRadAn=         0 IDoV= 1
 ScaDFX=  1.000000  1.000000  1.000000  1.000000
 FoFCou: FMM=F IPFlag=           0 FMFlag=      100000 FMFlg1=           0
         NFxFlg=           0 DoJE=T BraDBF=F KetDBF=T FulRan=T
         Omega=  0.000000  0.000000  1.000000  0.000000  0.000000 ICntrl=     500 IOpCl=  0
         NMat0=    1 NMatS0=    1 NMatT0=    0 NMatD0=    1 NMtDS0=    0 NMtDT0=    0
         I1Cent=           4 NGrid=           0.
 Symmetry not used in FoFCou.
 Requested convergence on RMS density matrix=1.00D-08 within 128 cycles.
 Requested convergence on MAX density matrix=1.00D-06.
 Requested convergence on             energy=1.00D-06.
 No special actions if energy rises.
 SCF Done:  E(RB3LYP) =  -544.973476646     A.U. after   12 cycles
             Convg  =    0.6581D-08             -V/T =  2.0061
 QCSCF skips out because SCF is already converged.
 Range of M.O.s used for correlation:     1   280
 NBasis=   280 NAE=    38 NBE=    38 NFC=     0 NFV=     0
 NROrb=    280 NOA=    38 NOB=    38 NVA=   242 NVB=   242

 **** Warning!!: The largest alpha MO coefficient is  0.10848239D+03


 **** Warning!!: The smallest alpha delta epsilon is  0.98193256D-01

 Symmetrizing basis deriv contribution to polar:
 IMax=3 JMax=2 DiffMx= 0.00D+00
 Calling FoFJK, ICntrl=      2147 FMM=F ISym2X=0 I1Cent= 0 IOpClX= 0 NMat=1 NMatS=1 NMatT=0.
 -------------------------------------------------------------------
 Center     Atomic                   Forces (Hartrees/Bohr)
 Number     Number              X              Y              Z
 -------------------------------------------------------------------
      1        6           0.000315343    0.000224795    0.000000073
      2        6           0.000471136   -0.000389736    0.000000007
      3        6           0.001469692    0.000249882    0.000000024
      4        6           0.000173646    0.000085942   -0.000000038
      5        6           0.000283018    0.000061229   -0.000000022
      6        6           0.000231695    0.000013935    0.000000041
      7        1           0.000028525    0.000017454    0.000000008
      8        1          -0.000017273    0.000025580   -0.000000007
      9        1           0.000022254    0.000005314   -0.000000005
     10        7           0.000080128    0.000007686    0.000000012
     11        8           0.000103001    0.000028419   -0.000000123
     12        8           0.000112667    0.000014387    0.000000081
     13        7          -0.001976241   -0.001259416   -0.000000210
     14        7          -0.001297590    0.000914528    0.000000159
 -------------------------------------------------------------------
 Cartesian Forces:  Max     0.001976241 RMS     0.000510991
 IRC-IRC-IRC-IRC-IRC-IRC-IRC-IRC-IRC-IRC-IRC-IRC-IRC-IRC-IRC-IRC-IRC-IRC
 Pt  4 Step number   1 out of a maximum of1000
 CORRECTOR INTEGRATION CONVERGENCE:
   Recorrection delta-x convergence threshold:    0.010000
   Delta-x Convergence Met
 Point Number:   4          Path Number:   1
   CHANGE IN THE REACTION COORDINATE =    0.03583
   NET REACTION COORDINATE UP TO THIS POINT =    0.14324
  # OF POINTS ALONG THE PATH =   4
  # OF STEPS =   1

 Calculating another point on the path.
 IRC-IRC-IRC-IRC-IRC-IRC-IRC-IRC-IRC-IRC-IRC-IRC-IRC-IRC-IRC-IRC-IRC-IRC
                          Input orientation:                          
 ---------------------------------------------------------------------
 Center     Atomic      Atomic             Coordinates (Angstroms)
 Number     Number       Type             X           Y           Z
 ---------------------------------------------------------------------
      1          6           0       -0.268985   -1.216136   -0.000049
      2          6           0        1.155008   -1.219440   -0.000049
      3          6           0        1.637090    0.040327    0.000001
      4          6           0        1.036449    1.306610    0.000052
      5          6           0       -0.349968    1.258303    0.000048
      6          6           0       -0.970315   -0.009516    0.000002
      7          1           0       -0.837273   -2.146057   -0.000091
      8          1           0        1.590256    2.245574    0.000088
      9          1           0       -0.955418    2.159938    0.000079
     10          7           0       -2.459482   -0.036835    0.000002
     11          8           0       -3.010979   -1.131699    0.000119
     12          8           0       -3.050253    1.041297   -0.000119
     13          7           0        3.202105    0.065185    0.000007
     14          7           0        4.276397   -0.224936   -0.000017
 ---------------------------------------------------------------------
                    Distance matrix (angstroms):
                    1          2          3          4          5
     1  C    0.000000
     2  C    1.423996   0.000000
     3  C    2.282941   1.348857   0.000000
     4  C    2.840494   2.528830   1.401514   0.000000
     5  C    2.475765   2.898993   2.330636   1.387258   0.000000
     6  C    1.395635   2.445590   2.607881   2.399852   1.411452
     7  H    1.089818   2.197226   3.301931   3.928326   3.439060
     8  H    3.929404   3.492243   2.205744   1.090117   2.176964
     9  H    3.445152   3.984230   3.348708   2.166957   1.086055
    10  N    2.487776   3.803037   4.097298   3.745181   2.475366
    11  O    2.743294   4.166910   4.793556   4.725148   3.576743
    12  O    3.582102   4.774426   4.793028   4.095305   2.708991
    13  N    3.700034   2.416789   1.565213   2.496237   3.747099
    14  N    4.652201   3.275989   2.652604   3.583698   4.858317
                    6          7          8          9         10
     6  C    0.000000
     7  H    2.140679   0.000000
     8  H    3.412030   5.017900   0.000000
     9  H    2.169505   4.307615   2.547114   0.000000
    10  N    1.489418   2.660898   4.648631   2.662334   0.000000
    11  O    2.328863   2.398732   5.707655   3.880748   1.225918
    12  O    2.330311   3.880271   4.794226   2.374804   1.229381
    13  N    4.173089   4.605016   2.711485   4.655425   5.662506
    14  N    5.251132   5.462630   3.649489   5.749740   6.738505
                   11         12         13         14
    11  O    0.000000
    12  O    2.173350   0.000000
    13  N    6.327317   6.328094   0.000000
    14  N    7.343573   7.435263   1.112777   0.000000
 Symmetry turned off by external request.
 Stoichiometry    C6H3N3O2
 Framework group  C1[X(C6H3N3O2)]
 Deg. of freedom    36
 Full point group                 C1      NOp   1
 Rotational constants (GHZ):      3.9444151      0.5896510      0.5129674
 Standard basis: Aug-CC-pVDZ (5D, 7F)
 Integral buffers will be    131072 words long.
 Raffenetti 2 integral format.
 Two-electron integral symmetry is turned off.
   280 basis functions,   506 primitive gaussians,   302 cartesian basis functions
    38 alpha electrons       38 beta electrons
       nuclear repulsion energy       527.9716218426 Hartrees.
 NAtoms=   14 NActive=   14 NUniq=   14 SFac= 1.00D+00 NAtFMM=   50 NAOKFM=F Big=F
 One-electron integrals computed using PRISM.
 NBasis=   280 RedAO= T  NBF=   280
 NBsUse=   280 1.00D-06 NBFU=   280
 Initial guess read from the read-write file.
 B after Tr=     0.000000    0.000000    0.000000
         Rot=    1.000000    0.000000    0.000000    0.000000 Ang=   0.00 deg.
 Harris functional with IExCor=  402 diagonalized for initial guess.
 ExpMin= 2.97D-02 ExpMax= 1.17D+04 ExpMxC= 4.01D+02 IAcc=3 IRadAn=         0 AccDes= 0.00D+00
 HarFok:  IExCor=  402 AccDes= 0.00D+00 IRadAn=         0 IDoV= 1
 ScaDFX=  1.000000  1.000000  1.000000  1.000000
 FoFCou: FMM=F IPFlag=           0 FMFlag=      100000 FMFlg1=           0
         NFxFlg=           0 DoJE=T BraDBF=F KetDBF=T FulRan=T
         Omega=  0.000000  0.000000  1.000000  0.000000  0.000000 ICntrl=     500 IOpCl=  0
         NMat0=    1 NMatS0=    1 NMatT0=    0 NMatD0=    1 NMtDS0=    0 NMtDT0=    0
         I1Cent=           4 NGrid=           0.
 Symmetry not used in FoFCou.
 Requested convergence on RMS density matrix=1.00D-08 within 128 cycles.
 Requested convergence on MAX density matrix=1.00D-06.
 Requested convergence on             energy=1.00D-06.
 No special actions if energy rises.
 SCF Done:  E(RB3LYP) =  -544.973513132     A.U. after   12 cycles
             Convg  =    0.6394D-08             -V/T =  2.0061
 QCSCF skips out because SCF is already converged.
 Range of M.O.s used for correlation:     1   280
 NBasis=   280 NAE=    38 NBE=    38 NFC=     0 NFV=     0
 NROrb=    280 NOA=    38 NOB=    38 NVA=   242 NVB=   242

 **** Warning!!: The largest alpha MO coefficient is  0.10836682D+03


 **** Warning!!: The smallest alpha delta epsilon is  0.97199543D-01

 Symmetrizing basis deriv contribution to polar:
 IMax=3 JMax=2 DiffMx= 0.00D+00
 Calling FoFJK, ICntrl=      2147 FMM=F ISym2X=0 I1Cent= 0 IOpClX= 0 NMat=1 NMatS=1 NMatT=0.
 -------------------------------------------------------------------
 Center     Atomic                   Forces (Hartrees/Bohr)
 Number     Number              X              Y              Z
 -------------------------------------------------------------------
      1        6           0.000386896    0.000271024    0.000000071
      2        6           0.000580049   -0.000484521    0.000000006
      3        6           0.001802163    0.000307940    0.000000022
      4        6           0.000221497    0.000105233   -0.000000042
      5        6           0.000346013    0.000080123   -0.000000016
      6        6           0.000292533    0.000016193    0.000000043
      7        1           0.000034458    0.000020563    0.000000007
      8        1          -0.000021471    0.000033734   -0.000000008
      9        1           0.000029176    0.000004454   -0.000000004
     10        7           0.000106485    0.000009695    0.000000014
     11        8           0.000133154    0.000033298   -0.000000121
     12        8           0.000151131    0.000018921    0.000000079
     13        7          -0.002454606   -0.001549529   -0.000000223
     14        7          -0.001607477    0.001132871    0.000000173
 -------------------------------------------------------------------
 Cartesian Forces:  Max     0.002454606 RMS     0.000631705
 IRC-IRC-IRC-IRC-IRC-IRC-IRC-IRC-IRC-IRC-IRC-IRC-IRC-IRC-IRC-IRC-IRC-IRC
 Pt  5 Step number   1 out of a maximum of1000
 CORRECTOR INTEGRATION CONVERGENCE:
   Recorrection delta-x convergence threshold:    0.010000
   Delta-x Convergence Met
 Point Number:   5          Path Number:   1
   CHANGE IN THE REACTION COORDINATE =    0.03583
   NET REACTION COORDINATE UP TO THIS POINT =    0.17907
  # OF POINTS ALONG THE PATH =   5
  # OF STEPS =   1

 Calculating another point on the path.
 IRC-IRC-IRC-IRC-IRC-IRC-IRC-IRC-IRC-IRC-IRC-IRC-IRC-IRC-IRC-IRC-IRC-IRC
                          Input orientation:                          
 ---------------------------------------------------------------------
 Center     Atomic      Atomic             Coordinates (Angstroms)
 Number     Number       Type             X           Y           Z
 ---------------------------------------------------------------------
      1          6           0       -0.268440   -1.215758   -0.000049
      2          6           0        1.155828   -1.220121   -0.000049
      3          6           0        1.639625    0.040754    0.000001
      4          6           0        1.036763    1.306760    0.000051
      5          6           0       -0.349477    1.258414    0.000048
      6          6           0       -0.969901   -0.009492    0.000002
      7          1           0       -0.836703   -2.145716   -0.000090
      8          1           0        1.589906    2.246148    0.000088
      9          1           0       -0.954943    2.160034    0.000079
     10          7           0       -2.459349   -0.036824    0.000002
     11          8           0       -3.010835   -1.131663    0.000118
     12          8           0       -3.050088    1.041317   -0.000119
     13          7           0        3.199099    0.063323    0.000007
     14          7           0        4.274481   -0.223572   -0.000017
 ---------------------------------------------------------------------
                    Distance matrix (angstroms):
                    1          2          3          4          5
     1  C    0.000000
     2  C    1.424275   0.000000
     3  C    2.284630   1.350506   0.000000
     4  C    2.840185   2.529685   1.402218   0.000000
     5  C    2.475498   2.899841   2.332214   1.387083   0.000000
     6  C    1.395394   2.446292   2.610009   2.399837   1.411563
     7  H    1.089837   2.197022   3.303460   3.928036   3.438821
     8  H    3.929153   3.493343   2.205955   1.090145   2.176425
     9  H    3.444889   3.985073   3.350094   2.166788   1.086052
    10  N    2.487964   3.803905   4.099707   3.745399   2.475722
    11  O    2.743684   4.167602   4.795971   4.725353   3.577051
    12  O    3.582171   4.775336   4.795261   4.095462   2.709323
    13  N    3.695927   2.412921   1.559638   2.494361   3.744414
    14  N    4.650008   3.274005   2.648082   3.581165   4.855644
                    6          7          8          9         10
     6  C    0.000000
     7  H    2.140373   0.000000
     8  H    3.411821   5.017659   0.000000
     9  H    2.169578   4.307374   2.546306   0.000000
    10  N    1.489699   2.660903   4.648486   2.662597   0.000000
    11  O    2.329095   2.398990   5.707576   3.880975   1.225891
    12  O    2.330532   3.880238   4.793866   2.375112   1.229374
    13  N    4.169636   4.600821   2.711869   4.653200   5.659334
    14  N    5.248750   5.460663   3.647803   5.747040   6.736419
                   11         12         13         14
    11  O    0.000000
    12  O    2.173335   0.000000
    13  N    6.323866   6.325252   0.000000
    14  N    7.341694   7.432984   1.112994   0.000000
 Symmetry turned off by external request.
 Stoichiometry    C6H3N3O2
 Framework group  C1[X(C6H3N3O2)]
 Deg. of freedom    36
 Full point group                 C1      NOp   1
 Rotational constants (GHZ):      3.9442216      0.5899455      0.5131870
 Standard basis: Aug-CC-pVDZ (5D, 7F)
 Integral buffers will be    131072 words long.
 Raffenetti 2 integral format.
 Two-electron integral symmetry is turned off.
   280 basis functions,   506 primitive gaussians,   302 cartesian basis functions
    38 alpha electrons       38 beta electrons
       nuclear repulsion energy       528.0275777727 Hartrees.
 NAtoms=   14 NActive=   14 NUniq=   14 SFac= 1.00D+00 NAtFMM=   50 NAOKFM=F Big=F
 One-electron integrals computed using PRISM.
 NBasis=   280 RedAO= T  NBF=   280
 NBsUse=   280 1.00D-06 NBFU=   280
 Initial guess read from the read-write file.
 B after Tr=     0.000000    0.000000    0.000000
         Rot=    1.000000    0.000000    0.000000    0.000000 Ang=   0.00 deg.
 Harris functional with IExCor=  402 diagonalized for initial guess.
 ExpMin= 2.97D-02 ExpMax= 1.17D+04 ExpMxC= 4.01D+02 IAcc=3 IRadAn=         0 AccDes= 0.00D+00
 HarFok:  IExCor=  402 AccDes= 0.00D+00 IRadAn=         0 IDoV= 1
 ScaDFX=  1.000000  1.000000  1.000000  1.000000
 FoFCou: FMM=F IPFlag=           0 FMFlag=      100000 FMFlg1=           0
         NFxFlg=           0 DoJE=T BraDBF=F KetDBF=T FulRan=T
         Omega=  0.000000  0.000000  1.000000  0.000000  0.000000 ICntrl=     500 IOpCl=  0
         NMat0=    1 NMatS0=    1 NMatT0=    0 NMatD0=    1 NMtDS0=    0 NMtDT0=    0
         I1Cent=           4 NGrid=           0.
 Symmetry not used in FoFCou.
 Requested convergence on RMS density matrix=1.00D-08 within 128 cycles.
 Requested convergence on MAX density matrix=1.00D-06.
 Requested convergence on             energy=1.00D-06.
 No special actions if energy rises.
 DSYEVD returned Info=         421 IAlg= 4 N=   280 NDim=   280 NE2=     1871021 trying DSYEV.
 SCF Done:  E(RB3LYP) =  -544.973557087     A.U. after   12 cycles
             Convg  =    0.6214D-08             -V/T =  2.0061
 QCSCF skips out because SCF is already converged.
 Range of M.O.s used for correlation:     1   280
 NBasis=   280 NAE=    38 NBE=    38 NFC=     0 NFV=     0
 NROrb=    280 NOA=    38 NOB=    38 NVA=   242 NVB=   242

 **** Warning!!: The largest alpha MO coefficient is  0.10823661D+03


 **** Warning!!: The smallest alpha delta epsilon is  0.96226798D-01

 Symmetrizing basis deriv contribution to polar:
 IMax=3 JMax=2 DiffMx= 0.00D+00
 Calling FoFJK, ICntrl=      2147 FMM=F ISym2X=0 I1Cent= 0 IOpClX= 0 NMat=1 NMatS=1 NMatT=0.
 -------------------------------------------------------------------
 Center     Atomic                   Forces (Hartrees/Bohr)
 Number     Number              X              Y              Z
 -------------------------------------------------------------------
      1        6           0.000455476    0.000316799    0.000000068
      2        6           0.000683502   -0.000581910    0.000000004
      3        6           0.002121510    0.000361307    0.000000023
      4        6           0.000264118    0.000130486   -0.000000046
      5        6           0.000418586    0.000092648   -0.000000013
      6        6           0.000348355    0.000018330    0.000000046
      7        1           0.000038550    0.000022780    0.000000006
      8        1          -0.000025043    0.000039173   -0.000000009
      9        1           0.000031602    0.000009121   -0.000000004
     10        7           0.000130744    0.000009013    0.000000017
     11        8           0.000166000    0.000039137   -0.000000119
     12        8           0.000185267    0.000024562    0.000000077
     13        7          -0.002911270   -0.001829373   -0.000000237
     14        7          -0.001907397    0.001347927    0.000000186
 -------------------------------------------------------------------
 Cartesian Forces:  Max     0.002911270 RMS     0.000748027
 IRC-IRC-IRC-IRC-IRC-IRC-IRC-IRC-IRC-IRC-IRC-IRC-IRC-IRC-IRC-IRC-IRC-IRC
 Pt  6 Step number   1 out of a maximum of1000
 CORRECTOR INTEGRATION CONVERGENCE:
   Recorrection delta-x convergence threshold:    0.010000
   Delta-x Convergence Met
 Point Number:   6          Path Number:   1
   CHANGE IN THE REACTION COORDINATE =    0.03583
   NET REACTION COORDINATE UP TO THIS POINT =    0.21490
  # OF POINTS ALONG THE PATH =   6
  # OF STEPS =   1

 Calculating another point on the path.
 IRC-IRC-IRC-IRC-IRC-IRC-IRC-IRC-IRC-IRC-IRC-IRC-IRC-IRC-IRC-IRC-IRC-IRC
                          Input orientation:                          
 ---------------------------------------------------------------------
 Center     Atomic      Atomic             Coordinates (Angstroms)
 Number     Number       Type             X           Y           Z
 ---------------------------------------------------------------------
      1          6           0       -0.267901   -1.215384   -0.000049
      2          6           0        1.156644   -1.220816   -0.000049
      3          6           0        1.642146    0.041178    0.000001
      4          6           0        1.037080    1.306916    0.000051
      5          6           0       -0.348979    1.258527    0.000048
      6          6           0       -0.969483   -0.009468    0.000002
      7          1           0       -0.836151   -2.145378   -0.000090
      8          1           0        1.589564    2.246721    0.000088
      9          1           0       -0.954474    2.160137    0.000079
     10          7           0       -2.459213   -0.036814    0.000002
     11          8           0       -3.010684   -1.131629    0.000118
     12          8           0       -3.049920    1.041339   -0.000119
     13          7           0        3.196096    0.061462    0.000006
     14          7           0        4.272556   -0.222198   -0.000017
 ---------------------------------------------------------------------
                    Distance matrix (angstroms):
                    1          2          3          4          5
     1  C    0.000000
     2  C    1.424555   0.000000
     3  C    2.286313   1.352162   0.000000
     4  C    2.839890   2.530558   1.402925   0.000000
     5  C    2.475239   2.900696   2.333777   1.386904   0.000000
     6  C    1.395152   2.446994   2.612121   2.399826   1.411679
     7  H    1.089861   2.196826   3.304994   3.927764   3.438590
     8  H    3.928911   3.494457   2.206169   1.090170   2.175885
     9  H    3.444637   3.985933   3.351481   2.166627   1.086060
    10  N    2.488147   3.804770   4.102100   3.745621   2.476084
    11  O    2.744062   4.168282   4.798365   4.725558   3.577362
    12  O    3.582238   4.776246   4.797479   4.095620   2.709659
    13  N    3.691830   2.409067   1.554082   2.492490   3.741727
    14  N    4.647813   3.272025   2.643562   3.578616   4.852951
                    6          7          8          9         10
     6  C    0.000000
     7  H    2.140067   0.000000
     8  H    3.411614   5.017432   0.000000
     9  H    2.169658   4.307141   2.545511   0.000000
    10  N    1.489980   2.660897   4.648346   2.662862   0.000000
    11  O    2.329323   2.399225   5.707498   3.881202   1.225863
    12  O    2.330754   3.880198   4.793512   2.375417   1.229369
    13  N    4.166183   4.596647   2.712250   4.650986   5.656163
    14  N    5.246354   5.458709   3.646095   5.744333   6.734321
                   11         12         13         14
    11  O    0.000000
    12  O    2.173322   0.000000
    13  N    6.320411   6.322411   0.000000
    14  N    7.339799   7.430692   1.113207   0.000000
 Symmetry turned off by external request.
 Stoichiometry    C6H3N3O2
 Framework group  C1[X(C6H3N3O2)]
 Deg. of freedom    36
 Full point group                 C1      NOp   1
 Rotational constants (GHZ):      3.9439974      0.5902418      0.5134074
 Standard basis: Aug-CC-pVDZ (5D, 7F)
 Integral buffers will be    131072 words long.
 Raffenetti 2 integral format.
 Two-electron integral symmetry is turned off.
   280 basis functions,   506 primitive gaussians,   302 cartesian basis functions
    38 alpha electrons       38 beta electrons
       nuclear repulsion energy       528.0839257441 Hartrees.
 NAtoms=   14 NActive=   14 NUniq=   14 SFac= 1.00D+00 NAtFMM=   50 NAOKFM=F Big=F
 One-electron integrals computed using PRISM.
 NBasis=   280 RedAO= T  NBF=   280
 NBsUse=   280 1.00D-06 NBFU=   280
 Initial guess read from the read-write file.
 B after Tr=     0.000000    0.000000    0.000000
         Rot=    1.000000    0.000000    0.000000    0.000000 Ang=   0.00 deg.
 Harris functional with IExCor=  402 diagonalized for initial guess.
 ExpMin= 2.97D-02 ExpMax= 1.17D+04 ExpMxC= 4.01D+02 IAcc=3 IRadAn=         0 AccDes= 0.00D+00
 HarFok:  IExCor=  402 AccDes= 0.00D+00 IRadAn=         0 IDoV= 1
 ScaDFX=  1.000000  1.000000  1.000000  1.000000
 FoFCou: FMM=F IPFlag=           0 FMFlag=      100000 FMFlg1=           0
         NFxFlg=           0 DoJE=T BraDBF=F KetDBF=T FulRan=T
         Omega=  0.000000  0.000000  1.000000  0.000000  0.000000 ICntrl=     500 IOpCl=  0
         NMat0=    1 NMatS0=    1 NMatT0=    0 NMatD0=    1 NMtDS0=    0 NMtDT0=    0
         I1Cent=           4 NGrid=           0.
 Symmetry not used in FoFCou.
 Requested convergence on RMS density matrix=1.00D-08 within 128 cycles.
 Requested convergence on MAX density matrix=1.00D-06.
 Requested convergence on             energy=1.00D-06.
 No special actions if energy rises.
 SCF Done:  E(RB3LYP) =  -544.973608188     A.U. after   12 cycles
             Convg  =    0.6118D-08             -V/T =  2.0061
 QCSCF skips out because SCF is already converged.
 Range of M.O.s used for correlation:     1   280
 NBasis=   280 NAE=    38 NBE=    38 NFC=     0 NFV=     0
 NROrb=    280 NOA=    38 NOB=    38 NVA=   242 NVB=   242

 **** Warning!!: The largest alpha MO coefficient is  0.10808743D+03


 **** Warning!!: The smallest alpha delta epsilon is  0.95274930D-01

 Symmetrizing basis deriv contribution to polar:
 IMax=3 JMax=2 DiffMx= 0.00D+00
 Calling FoFJK, ICntrl=      2147 FMM=F ISym2X=0 I1Cent= 0 IOpClX= 0 NMat=1 NMatS=1 NMatT=0.
 -------------------------------------------------------------------
 Center     Atomic                   Forces (Hartrees/Bohr)
 Number     Number              X              Y              Z
 -------------------------------------------------------------------
      1        6           0.000513214    0.000356606    0.000000065
      2        6           0.000778697   -0.000678736    0.000000002
      3        6           0.002427562    0.000409702    0.000000024
      4        6           0.000301594    0.000156106   -0.000000048
      5        6           0.000479068    0.000110042   -0.000000009
      6        6           0.000386147    0.000021272    0.000000049
      7        1           0.000045792    0.000028416    0.000000005
      8        1          -0.000028283    0.000045560   -0.000000010
      9        1           0.000038735    0.000007722   -0.000000003
     10        7           0.000156524    0.000013054    0.000000020
     11        8           0.000193936    0.000044517   -0.000000118
     12        8           0.000220494    0.000027187    0.000000075
     13        7          -0.003340576   -0.002097051   -0.000000252
     14        7          -0.002172905    0.001555603    0.000000200
 -------------------------------------------------------------------
 Cartesian Forces:  Max     0.003340576 RMS     0.000856967
 IRC-IRC-IRC-IRC-IRC-IRC-IRC-IRC-IRC-IRC-IRC-IRC-IRC-IRC-IRC-IRC-IRC-IRC
 Pt  7 Step number   1 out of a maximum of1000
 CORRECTOR INTEGRATION CONVERGENCE:
   Recorrection delta-x convergence threshold:    0.010000
   Delta-x Convergence Met
 Point Number:   7          Path Number:   1
   CHANGE IN THE REACTION COORDINATE =    0.03583
   NET REACTION COORDINATE UP TO THIS POINT =    0.25073
  # OF POINTS ALONG THE PATH =   7
  # OF STEPS =   1

 Calculating another point on the path.
 IRC-IRC-IRC-IRC-IRC-IRC-IRC-IRC-IRC-IRC-IRC-IRC-IRC-IRC-IRC-IRC-IRC-IRC
                          Input orientation:                          
 ---------------------------------------------------------------------
 Center     Atomic      Atomic             Coordinates (Angstroms)
 Number     Number       Type             X           Y           Z
 ---------------------------------------------------------------------
      1          6           0       -0.267370   -1.215011   -0.000049
      2          6           0        1.157454   -1.221524   -0.000049
      3          6           0        1.644670    0.041600    0.000001
      4          6           0        1.037396    1.307078    0.000051
      5          6           0       -0.348482    1.258640    0.000048
      6          6           0       -0.969082   -0.009446    0.000002
      7          1           0       -0.835597   -2.145040   -0.000090
      8          1           0        1.589217    2.247299    0.000088
      9          1           0       -0.953995    2.160240    0.000079
     10          7           0       -2.459073   -0.036802    0.000002
     11          8           0       -3.010532   -1.131594    0.000118
[...]
 389                   -0.00380  -1.11061
 390                   -0.00358  -1.07479
 391                   -0.00337  -1.03896
 392                   -0.00316  -1.00313
 393                   -0.00296  -0.96730
 394                   -0.00276  -0.93147
 395                   -0.00257  -0.89564
 396                   -0.00238  -0.85981
 397                   -0.00220  -0.82398
 398                   -0.00202  -0.78815
 399                   -0.00185  -0.75232
 400                   -0.00169  -0.71650
 401                   -0.00153  -0.68067
 402                   -0.00138  -0.64484
 403                   -0.00123  -0.60901
 404                   -0.00110  -0.57318
 405                   -0.00097  -0.53735
 406                   -0.00084  -0.50152
 407                   -0.00073  -0.46569
 408                   -0.00062  -0.42987
 409                   -0.00052  -0.39404
 410                   -0.00043  -0.35821
 411                   -0.00035  -0.32238
 412                   -0.00028  -0.28655
 413                   -0.00021  -0.25072
 414                   -0.00016  -0.21490
 415                   -0.00011  -0.17907
 416                   -0.00007  -0.14324
 417                   -0.00004  -0.10741
 418                   -0.00002  -0.07159
 419                    0.00000  -0.03578
 420                    0.00000   0.00000
 421                    0.00000   0.03578
 422                   -0.00002   0.07159
 423                   -0.00004   0.10742
 424                   -0.00007   0.14324
 425                   -0.00010   0.17907
 426                   -0.00015   0.21490
 427                   -0.00020   0.25073
 428                   -0.00026   0.28655
 429                   -0.00032   0.32238
 430                   -0.00039   0.35821
 431                   -0.00047   0.39404
 432                   -0.00055   0.42987
 433                   -0.00063   0.46570
 434                   -0.00072   0.50152
 435                   -0.00081   0.53735
 436                   -0.00091   0.57318
 437                   -0.00101   0.60901
 438                   -0.00110   0.64484
 439                   -0.00120   0.68067
 440                   -0.00130   0.71650
 441                   -0.00140   0.75232
 442                   -0.00150   0.78815
 443                   -0.00159   0.82398
 444                   -0.00168   0.85981
 445                   -0.00177   0.89564
 446                   -0.00186   0.93146
 447                   -0.00194   0.96729
 448                   -0.00201   1.00311
 449                   -0.00209   1.03893
 450                   -0.00215   1.07476
 451                   -0.00221   1.11057
 452                   -0.00227   1.14639
 453                   -0.00232   1.18220
 454                   -0.00236   1.21801
 455                   -0.00240   1.25382
 456                   -0.00244   1.28963
 457                   -0.00247   1.32544
 458                   -0.00250   1.36125
 459                   -0.00253   1.39706
 460                   -0.00255   1.43287
 461                   -0.00258   1.46869
 462                   -0.00260   1.50451
 463                   -0.00262   1.54033
 464                   -0.00264   1.57615
 465                   -0.00265   1.61197
 466                   -0.00267   1.64779
 467                   -0.00268   1.68361
 468                   -0.00270   1.71943
 469                   -0.00271   1.75527
 470                   -0.00272   1.79109
 471                   -0.00273   1.82690
 472                   -0.00274   1.86269
 473                   -0.00275   1.89831
 474                   -0.00275   1.93362
 475                   -0.00276   1.96867
 476                   -0.00276   2.00394
 477                   -0.00277   2.03961
 478                   -0.00277   2.07532
 479                   -0.00277   2.11104
 --------------------------------------------------------------------------
 
 Total number of points:                  478
 Total number of gradient calculations:   479
 Total number of Hessian calculations:      1
 IRC-IRC-IRC-IRC-IRC-IRC-IRC-IRC-IRC-IRC-IRC-IRC-IRC-IRC-IRC-IRC-IRC-IRC
                          Input orientation:                          
 ---------------------------------------------------------------------
 Center     Atomic      Atomic             Coordinates (Angstroms)
 Number     Number       Type             X           Y           Z
 ---------------------------------------------------------------------
      1          6           0       -0.644802   -1.336085    0.000006
      2          6           0        0.728895   -1.180403    0.000007
      3          6           0        1.362423   -0.100683    0.000004
      4          6           0        0.855740    1.191329   -0.000001
      5          6           0       -0.553010    1.161885   -0.000003
      6          6           0       -1.257860   -0.060229    0.000001
      7          1           0       -1.225652   -2.253559    0.000009
      8          1           0        1.423389    2.118791   -0.000003
      9          1           0       -1.121736    2.089346   -0.000007
     10          7           0       -2.736972   -0.014706   -0.000001
     11          8           0       -3.336280   -1.086730    0.000017
     12          8           0       -3.280288    1.086614   -0.000020
     13          7           0        4.638287    0.517379    0.000011
     14          7           0        5.296649   -0.368961   -0.000020
 ---------------------------------------------------------------------
                    Distance matrix (angstroms):
                    1          2          3          4          5
     1  C    0.000000
     2  C    1.382490   0.000000
     3  C    2.356941   1.251860   0.000000
     4  C    2.939294   2.375122   1.387812   0.000000
     5  C    2.499656   2.670130   2.294114   1.409057   0.000000
     6  C    1.415503   2.280786   2.620596   2.456360   1.410808
     7  H    1.085885   2.229780   3.366453   4.024854   3.481050
     8  H    4.026608   3.371498   2.220310   1.087386   2.195864
     9  H    3.458474   3.757139   3.311687   2.171830   1.087949
    10  N    2.474514   3.656649   4.100297   3.789737   2.480738
    11  O    2.703005   4.066254   4.801052   4.771015   3.578109
    12  O    3.579841   4.605748   4.792122   4.137353   2.728317
    13  N    5.598782   4.262137   3.333660   3.842118   5.231152
    14  N    6.019648   4.639269   3.943363   4.707035   6.046652
                    6          7          8          9         10
     6  C    0.000000
     7  H    2.193566   0.000000
     8  H    3.455029   5.112226   0.000000
     9  H    2.153881   4.344148   2.545295   0.000000
    10  N    1.479812   2.701214   4.675512   2.652550   0.000000
    11  O    2.318088   2.411689   5.738450   3.871907   1.228172
    12  O    2.324965   3.921516   4.815596   2.380087   1.228046
    13  N    5.924373   6.485668   3.591670   5.970674   7.394428
    14  N    6.561776   6.789118   4.603374   6.873059   8.041428
                   11         12         13         14
    11  O    0.000000
    12  O    2.174065   0.000000
    13  N    8.134304   7.939009   0.000000
    14  N    8.662717   8.699572   1.104101   0.000000
 Symmetry turned off by external request.
 Stoichiometry    C6H3N3O2
 Framework group  C1[X(C6H3N3O2)]
 Deg. of freedom    36
 Full point group                 C1      NOp   1
 Rotational constants (GHZ):      3.9235830      0.4144950      0.3748908

 **********************************************************************

            Population analysis using the SCF density.

 **********************************************************************

 Alpha  occ. eigenvalues --  -19.19910 -19.19879 -14.58826 -14.45563 -14.45410
 Alpha  occ. eigenvalues --  -10.28056 -10.26387 -10.25916 -10.24571 -10.24248
 Alpha  occ. eigenvalues --  -10.23756  -1.24968  -1.14077  -1.07678  -0.92309
 Alpha  occ. eigenvalues --   -0.83098  -0.79975  -0.71637  -0.65968  -0.60017
 Alpha  occ. eigenvalues --   -0.57536  -0.56935  -0.55385  -0.53759  -0.50458
 Alpha  occ. eigenvalues --   -0.49948  -0.48535  -0.47763  -0.47699  -0.44453
 Alpha  occ. eigenvalues --   -0.43211  -0.42373  -0.33578  -0.33464  -0.31511
 Alpha  occ. eigenvalues --   -0.30873  -0.30477  -0.30003
 Alpha virt. eigenvalues --   -0.11847  -0.11388  -0.06260  -0.04550  -0.04295
 Alpha virt. eigenvalues --   -0.01286  -0.01195   0.00410   0.01637   0.03265
 Alpha virt. eigenvalues --    0.03631   0.03804   0.05159   0.06504   0.06627
 Alpha virt. eigenvalues --    0.07032   0.07143   0.07879   0.09064   0.09359
 Alpha virt. eigenvalues --    0.09884   0.09919   0.10042   0.11257   0.11665
 Alpha virt. eigenvalues --    0.11704   0.12028   0.12650   0.13023   0.13927
 Alpha virt. eigenvalues --    0.14167   0.15890   0.16075   0.16649   0.17386
 Alpha virt. eigenvalues --    0.17421   0.18095   0.18512   0.20013   0.20421
 Alpha virt. eigenvalues --    0.20697   0.21833   0.22025   0.22951   0.23231
 Alpha virt. eigenvalues --    0.23940   0.24530   0.25155   0.25761   0.26243
 Alpha virt. eigenvalues --    0.26428   0.27754   0.28598   0.28826   0.28873
 Alpha virt. eigenvalues --    0.29759   0.30098   0.30633   0.31482   0.31871
 Alpha virt. eigenvalues --    0.32916   0.34085   0.35446   0.35498   0.36809
 Alpha virt. eigenvalues --    0.38554   0.39266   0.39297   0.40651   0.41449
 Alpha virt. eigenvalues --    0.41820   0.43696   0.44344   0.45394   0.46586
 Alpha virt. eigenvalues --    0.46752   0.47536   0.48972   0.49721   0.49966
 Alpha virt. eigenvalues --    0.50431   0.51434   0.52898   0.53768   0.54379
 Alpha virt. eigenvalues --    0.54895   0.56873   0.58405   0.58445   0.58558
 Alpha virt. eigenvalues --    0.59604   0.60018   0.60871   0.61463   0.61608
 Alpha virt. eigenvalues --    0.62748   0.63707   0.64474   0.65842   0.67846
 Alpha virt. eigenvalues --    0.68017   0.69568   0.70049   0.70555   0.70869
 Alpha virt. eigenvalues --    0.72364   0.72989   0.74255   0.74982   0.75229
 Alpha virt. eigenvalues --    0.76630   0.77586   0.78529   0.79750   0.80155
 Alpha virt. eigenvalues --    0.80368   0.81657   0.84490   0.84554   0.86191
 Alpha virt. eigenvalues --    0.86379   0.87223   0.89402   0.90468   0.92639
 Alpha virt. eigenvalues --    0.94474   0.96521   0.96681   1.00875   1.01477
 Alpha virt. eigenvalues --    1.02699   1.03975   1.04619   1.04680   1.06484
 Alpha virt. eigenvalues --    1.08317   1.10173   1.10652   1.12732   1.15267
 Alpha virt. eigenvalues --    1.15334   1.16326   1.18139   1.19691   1.19930
 Alpha virt. eigenvalues --    1.21333   1.23769   1.23969   1.26585   1.26797
 Alpha virt. eigenvalues --    1.28109   1.30299   1.33768   1.33834   1.34616
 Alpha virt. eigenvalues --    1.34915   1.37303   1.39603   1.39843   1.40693
 Alpha virt. eigenvalues --    1.41719   1.44022   1.44948   1.45231   1.46544
 Alpha virt. eigenvalues --    1.52373   1.55222   1.56096   1.58018   1.59020
 Alpha virt. eigenvalues --    1.59756   1.62113   1.65017   1.66711   1.66859
 Alpha virt. eigenvalues --    1.68733   1.70510   1.71119   1.73592   1.74467
 Alpha virt. eigenvalues --    1.77422   1.79272   1.82819   1.85830   1.86950
 Alpha virt. eigenvalues --    1.88778   1.89406   1.92113   1.93868   1.96146
 Alpha virt. eigenvalues --    1.96658   1.98534   1.98945   2.02871   2.03252
 Alpha virt. eigenvalues --    2.03638   2.05135   2.07371   2.12193   2.16862
 Alpha virt. eigenvalues --    2.19006   2.19277   2.28330   2.30062   2.30858
 Alpha virt. eigenvalues --    2.33810   2.33911   2.34939   2.37582   2.39103
 Alpha virt. eigenvalues --    2.43022   2.46128   2.48509   2.55122   2.56174
 Alpha virt. eigenvalues --    2.62776   2.65500   2.70991   2.75181   2.77723
 Alpha virt. eigenvalues --    2.79378   2.82301   2.82645   2.87660   2.92342
 Alpha virt. eigenvalues --    2.96651   3.07548   3.11296   3.26838   3.27680
 Alpha virt. eigenvalues --    3.27941   3.29410   3.35597   3.38120   3.38920
 Alpha virt. eigenvalues --    3.44814   3.57444   3.58984   3.76789   3.80393
 Alpha virt. eigenvalues --    3.84442   4.11923
          Condensed to atoms (all electrons):
              1          2          3          4          5          6
     1  C    9.361132  -0.745689   0.750764  -2.684407   1.030692  -2.099199
     2  C   -0.745689   9.362585  -0.627139   0.559916  -2.355325   0.768292
     3  C    0.750764  -0.627139   8.374180  -2.498003   1.929983  -2.091015
     4  C   -2.684407   0.559916  -2.498003  13.903686  -5.371446   2.485797
     5  C    1.030692  -2.355325   1.929983  -5.371446  16.147507  -5.421302
     6  C   -2.099199   0.768292  -2.091015   2.485797  -5.421302  10.924790
     7  H   -0.967098   0.116251  -0.047172   0.154954  -0.206168   0.453286
     8  H    0.219374   0.034620   0.646112  -1.956263   1.050198  -0.600611
     9  H    0.018601   0.111708  -0.535937   0.765297  -2.408238   1.320037
    10  N    0.115482  -0.190755   0.130940  -0.267171   0.384170  -0.506132
    11  O    0.049582  -0.035071   0.011097  -0.057839   0.053021   0.026389
    12  O    0.016688  -0.000919   0.005113  -0.057791  -0.022914   0.108305
    13  N   -0.004972   0.023174  -0.101399   0.071837  -0.024756   0.000389
    14  N    0.012759   0.018912   0.029085  -0.047304   0.001207  -0.004901
              7          8          9         10         11         12
     1  C   -0.967098   0.219374   0.018601   0.115482   0.049582   0.016688
     2  C    0.116251   0.034620   0.111708  -0.190755  -0.035071  -0.000919
     3  C   -0.047172   0.646112  -0.535937   0.130940   0.011097   0.005113
     4  C    0.154954  -1.956263   0.765297  -0.267171  -0.057839  -0.057791
     5  C   -0.206168   1.050198  -2.408238   0.384170   0.053021  -0.022914
     6  C    0.453286  -0.600611   1.320037  -0.506132   0.026389   0.108305
     7  H    2.254902   0.009811  -0.008779  -0.129851  -0.003740  -0.012105
     8  H    0.009811   2.462183  -0.193056   0.015802  -0.001292  -0.002478
     9  H   -0.008779  -0.193056   3.001048  -0.190414  -0.010910  -0.005243
    10  N   -0.129851   0.015802  -0.190414   7.745462  -0.428018  -0.425969
    11  O   -0.003740  -0.001292  -0.010910  -0.428018   9.130274  -0.057189
    12  O   -0.012105  -0.002478  -0.005243  -0.425969  -0.057189   9.135934
    13  N    0.000036  -0.017608  -0.000035   0.000130  -0.000028  -0.000016
    14  N   -0.000098  -0.001515   0.000047   0.000089   0.000004   0.000001
             13         14
     1  C   -0.004972   0.012759
     2  C    0.023174   0.018912
     3  C   -0.101399   0.029085
     4  C    0.071837  -0.047304
     5  C   -0.024756   0.001207
     6  C    0.000389  -0.004901
     7  H    0.000036  -0.000098
     8  H   -0.017608  -0.001515
     9  H   -0.000035   0.000047
    10  N    0.000130   0.000089
    11  O   -0.000028   0.000004
    12  O   -0.000016   0.000001
    13  N    7.284424  -0.360140
    14  N   -0.360140   7.482823
 Mulliken atomic charges:
              1
     1  C    0.926292
     2  C   -1.040560
     3  C    0.023390
     4  C    0.998737
     5  C    1.213371
     6  C    0.635874
     7  H   -0.614230
     8  H   -0.665278
     9  H   -0.864128
    10  N    0.746234
    11  O   -0.676282
    12  O   -0.681417
    13  N    0.128963
    14  N   -0.130968
 Sum of Mulliken atomic charges =   0.00000
 Mulliken charges with hydrogens summed into heavy atoms:
              1
     1  C    0.312062
     2  C   -1.040560
     3  C    0.023390
     4  C    0.333459
     5  C    0.349243
     6  C    0.635874
    10  N    0.746234
    11  O   -0.676282
    12  O   -0.681417
    13  N    0.128963
    14  N   -0.130968
 Sum of Mulliken charges with hydrogens summed into heavy atoms =   0.00000
 APT atomic charges:
              1
     1  C    0.187206
     2  C   -0.045224
     3  C   -0.024097
     4  C    0.257107
     5  C    0.419389
     6  C   -0.049608
     7  H   -0.067901
     8  H   -0.108360
     9  H   -0.198694
    10  N    0.698533
    11  O   -0.519540
    12  O   -0.522362
    13  N   -1.016519
    14  N    0.990071
 Sum of APT charges=   0.00000
 APT Atomic charges with hydrogens summed into heavy atoms:
              1
     1  C    0.119305
     2  C   -0.045224
     3  C   -0.024097
     4  C    0.148746
     5  C    0.220695
     6  C   -0.049608
     7  H    0.000000
     8  H    0.000000
     9  H    0.000000
    10  N    0.698533
    11  O   -0.519540
    12  O   -0.522362
    13  N   -1.016519
    14  N    0.990071
 Sum of APT charges=   0.00000
 Electronic spatial extent (au):  <R**2>=           2586.9974
 Charge=              0.0000 electrons
 Dipole moment (field-independent basis, Debye):
    X=              3.2443    Y=              0.8216    Z=              0.0000  Tot=              3.3467
 Quadrupole moment (field-independent basis, Debye-Ang):
   XX=            -77.3570   YY=            -58.4849   ZZ=            -61.7529
   XY=              3.1969   XZ=              0.0000   YZ=              0.0000
 Traceless Quadrupole moment (field-independent basis, Debye-Ang):
   XX=            -11.4921   YY=              7.3801   ZZ=              4.1120
   XY=              3.1969   XZ=              0.0000   YZ=              0.0000
 Octapole moment (field-independent basis, Debye-Ang**2):
  XXX=             52.8761  YYY=              3.2436  ZZZ=              0.0000  XYY=             -0.7280
  XXY=              9.7047  XXZ=              0.0003  XZZ=             -6.1314  YZZ=             -0.3631
  YYZ=              0.0000  XYZ=             -0.0004
 Hexadecapole moment (field-independent basis, Debye-Ang**3):
 XXXX=          -3099.1425 YYYY=           -365.6974 ZZZZ=            -64.0961 XXXY=             34.8392
 XXXZ=              0.0022 YYYX=             -5.7425 YYYZ=              0.0007 ZZZX=              0.0005
 ZZZY=              0.0009 XXYY=           -574.9455 XXZZ=           -465.7600 YYZZ=            -81.2355
 XXYZ=              0.0002 YYXZ=              0.0001 ZZXY=             -6.4110
 N-N= 4.958373147554D+02 E-N=-2.263347040628D+03  KE= 5.416837320774D+02
  Exact polarizability:   0.000   0.000   0.000   0.000   0.000   0.000
 Approx polarizability: 205.274  13.726 237.799   0.000  -0.001  85.587
 -------------------------------------------------------------------
 Center     Atomic                   Forces (Hartrees/Bohr)
 Number     Number              X              Y              Z
 -------------------------------------------------------------------
      1        6          -0.000052952   -0.000017729    0.000000014
      2        6          -0.000045345   -0.000022999    0.000000014
      3        6          -0.000048953   -0.000060136    0.000000002
      4        6          -0.000007193   -0.000038130   -0.000000012
      5        6          -0.000021130   -0.000018193   -0.000000012
      6        6          -0.000040178   -0.000007147    0.000000002
      7        1           0.000001934   -0.000000938   -0.000000003
      8        1           0.000001571    0.000002903    0.000000003
      9        1           0.000001290    0.000000071    0.000000003
     10        7          -0.000036804    0.000019349   -0.000000001
     11        8          -0.000067207    0.000034979   -0.000000029
     12        8          -0.000021668    0.000034875    0.000000026
     13        7           0.000022234   -0.000027643   -0.000000020
     14        7           0.000314400    0.000100737    0.000000014
 -------------------------------------------------------------------
 Cartesian Forces:  Max     0.000314400 RMS     0.000056714

 This type of calculation cannot be archived.


 IF AT FIRST YOU DON'T SUCCEED, TRY, TRY AGAIN.
 THEN GIVE UP;
 THERE'S NO USE BEING A DAMN FOOL ABOUT IT.

                                 -- W. C. FIELDS
 Job cpu time:  3 days 12 hours  0 minutes 48.8 seconds.
 File lengths (MBytes):  RWF=    131 Int=      0 D2E=      0 Chk=     21 Scr=      1
 Normal termination of Gaussian 09 at Mon Dec 24 08:14:12 2018.
