 Entering Gaussian System, Link 0=/home/ubuntu/g09/g09
 Input=4-NO2-C6H3-TS.gjf
 Output=4-NO2-C6H3-TS.log
 Initial command:
 /home/ubuntu/g09/l1.exe /home/ubuntu/g09/Gau-1212.inp -scrdir=/home/ubuntu/g09/
 Entering Link 1 = /home/ubuntu/g09/l1.exe PID=      1214.
  
 Copyright (c) 1988,1990,1992,1993,1995,1998,2003,2009,2010,
            Gaussian, Inc.  All Rights Reserved.
  
 This is part of the Gaussian(R) 09 program.  It is based on
 the Gaussian(R) 03 system (copyright 2003, Gaussian, Inc.),
 the Gaussian(R) 98 system (copyright 1998, Gaussian, Inc.),
 the Gaussian(R) 94 system (copyright 1995, Gaussian, Inc.),
 the Gaussian 92(TM) system (copyright 1992, Gaussian, Inc.),
 the Gaussian 90(TM) system (copyright 1990, Gaussian, Inc.),
 the Gaussian 88(TM) system (copyright 1988, Gaussian, Inc.),
 the Gaussian 86(TM) system (copyright 1986, Carnegie Mellon
 University), and the Gaussian 82(TM) system (copyright 1983,
 Carnegie Mellon University). Gaussian is a federally registered
 trademark of Gaussian, Inc.
  
 This software contains proprietary and confidential information,
 including trade secrets, belonging to Gaussian, Inc.
  
 This software is provided under written license and may be
 used, copied, transmitted, or stored only in accord with that
 written license.
  
 The following legend is applicable only to US Government
 contracts under FAR:
  
                    RESTRICTED RIGHTS LEGEND
  
 Use, reproduction and disclosure by the US Government is
 subject to restrictions as set forth in subparagraphs (a)
 and (c) of the Commercial Computer Software - Restricted
 Rights clause in FAR 52.227-19.
  
 Gaussian, Inc.
 340 Quinnipiac St., Bldg. 40, Wallingford CT 06492
  
  
 ---------------------------------------------------------------
 Warning -- This program may not be used in any manner that
 competes with the business of Gaussian, Inc. or will provide
 assistance to any competitor of Gaussian, Inc.  The licensee
 of this program is prohibited from giving any competitor of
 Gaussian, Inc. access to this program.  By using this program,
 the user acknowledges that Gaussian, Inc. is engaged in the
 business of creating and licensing software in the field of
 computational chemistry and represents and warrants to the
 licensee that it is not a competitor of Gaussian, Inc. and that
 it will not use this program in any manner prohibited above.
 ---------------------------------------------------------------
  

 Cite this work as:
 Gaussian 09, Revision B.01,
 M. J. Frisch, G. W. Trucks, H. B. Schlegel, G. E. Scuseria, 
 M. A. Robb, J. R. Cheeseman, G. Scalmani, V. Barone, B. Mennucci, 
 G. A. Petersson, H. Nakatsuji, M. Caricato, X. Li, H. P. Hratchian, 
 A. F. Izmaylov, J. Bloino, G. Zheng, J. L. Sonnenberg, M. Hada, 
 M. Ehara, K. Toyota, R. Fukuda, J. Hasegawa, M. Ishida, T. Nakajima, 
 Y. Honda, O. Kitao, H. Nakai, T. Vreven, J. A. Montgomery, Jr., 
 J. E. Peralta, F. Ogliaro, M. Bearpark, J. J. Heyd, E. Brothers, 
 K. N. Kudin, V. N. Staroverov, T. Keith, R. Kobayashi, J. Normand, 
 K. Raghavachari, A. Rendell, J. C. Burant, S. S. Iyengar, J. Tomasi, 
 M. Cossi, N. Rega, J. M. Millam, M. Klene, J. E. Knox, J. B. Cross, 
 V. Bakken, C. Adamo, J. Jaramillo, R. Gomperts, R. E. Stratmann, 
 O. Yazyev, A. J. Austin, R. Cammi, C. Pomelli, J. W. Ochterski, 
 R. L. Martin, K. Morokuma, V. G. Zakrzewski, G. A. Voth, 
 P. Salvador, J. J. Dannenberg, S. Dapprich, A. D. Daniels, 
 O. Farkas, J. B. Foresman, J. V. Ortiz, J. Cioslowski, 
 and D. J. Fox, Gaussian, Inc., Wallingford CT, 2010.
 
 ******************************************
 Gaussian 09:  EM64L-G09RevB.01 12-Aug-2010
                19-Dec-2018 
 ******************************************
 %chk=4-NO2-C6H3-TS.chk
 %mem=500MW
 %nproc=7
 Will use up to    7 processors via shared memory.
 ---------------------------------------------------------
 # rb3lyp/aug-cc-pVDZ opt=(ts,noeigen,calcfc) freq=noraman
 ---------------------------------------------------------
 1/5=1,10=4,11=1,14=-1,18=20,26=3,38=1/1,3;
 2/9=110,12=2,17=6,18=5,40=1/2;
 3/5=16,7=10,11=2,16=1,25=1,30=1,71=2,74=-5,116=1/1,2,3;
 4//1;
 5/5=2,38=5/2;
 8/6=4,10=90,11=11/1;
 11/6=1,8=1,9=11,15=111,16=1/1,2,10;
 10/6=1,7=6,13=1/2;
 6/7=2,8=2,9=2,10=2,28=1/1;
 7/10=1,18=20,25=1/1,2,3,16;
 1/5=1,10=4,11=1,14=-1,18=20/3(2);
 2/9=110/2;
 99//99;
 2/9=110/2;
 3/5=16,7=10,11=2,16=1,25=1,30=1,71=1,74=-5,116=1/1,2,3;
 4/5=5,16=3/1;
 5/5=2,38=5/2;
 7//1,2,3,16;
 1/5=1,11=1,14=-1,18=20/3(-5);
 2/9=110/2;
 6/7=2,8=2,9=2,10=2,19=2,28=1/1;
 99/9=1/99;
 ----------
 4-NO2-C6H3
 ----------
 Symbolic Z-matrix:
 Charge =  0 Multiplicity = 1
 C                    -1.99105  -0.18488  -0.64742 
 C                    -0.57238  -0.18988  -0.75926 
 C                    -0.05103   0.9009   -0.17989 
 C                    -0.58304   2.00671   0.48884 
 C                    -1.96809   1.96985   0.57429 
 C                    -2.63889   0.8692    0.00064 
 H                    -2.59679  -0.99188  -1.05891 
 H                     0.01199   2.8196    0.90478 
 H                    -2.53371   2.75663   1.06469 
 N                    -4.12309   0.85085   0.10423 
 O                    -4.71944  -0.09562  -0.39749 
 O                    -4.66661   1.78869   0.6844 
 N                     1.54689   0.92881  -0.28714 
 N                     2.60477   0.67441  -0.51236 
 

 GradGradGradGradGradGradGradGradGradGradGradGradGradGradGradGradGradGrad
 Berny optimization.
 Initialization pass.
                           ----------------------------
                           !    Initial Parameters    !
                           ! (Angstroms and Degrees)  !
 --------------------------                            --------------------------
 ! Name  Definition              Value          Derivative Info.                !
 --------------------------------------------------------------------------------
 ! R1    R(1,2)                  1.4231         calculate D2E/DX2 analytically  !
 ! R2    R(1,6)                  1.3967         calculate D2E/DX2 analytically  !
 ! R3    R(1,7)                  1.0897         calculate D2E/DX2 analytically  !
 ! R4    R(2,3)                  1.3406         calculate D2E/DX2 analytically  !
 ! R5    R(3,4)                  1.3975         calculate D2E/DX2 analytically  !
 ! R6    R(3,13)                 1.6018         calculate D2E/DX2 analytically  !
 ! R7    R(4,5)                  1.3882         calculate D2E/DX2 analytically  !
 ! R8    R(4,8)                  1.0899         calculate D2E/DX2 analytically  !
 ! R9    R(5,6)                  1.4108         calculate D2E/DX2 analytically  !
 ! R10   R(5,9)                  1.086          calculate D2E/DX2 analytically  !
 ! R11   R(6,10)                 1.4879         calculate D2E/DX2 analytically  !
 ! R12   R(10,11)                1.226          calculate D2E/DX2 analytically  !
 ! R13   R(10,12)                1.2295         calculate D2E/DX2 analytically  !
 ! R14   R(13,14)                1.1111         calculate D2E/DX2 analytically  !
 ! A1    A(2,1,6)              120.1004         calculate D2E/DX2 analytically  !
 ! A2    A(2,1,7)              121.4575         calculate D2E/DX2 analytically  !
 ! A3    A(6,1,7)              118.4421         calculate D2E/DX2 analytically  !
 ! A4    A(1,2,3)              110.5398         calculate D2E/DX2 analytically  !
 ! A5    A(2,3,4)              134.6326         calculate D2E/DX2 analytically  !
 ! A6    A(2,3,13)             111.9128         calculate D2E/DX2 analytically  !
 ! A7    A(4,3,13)             113.4546         calculate D2E/DX2 analytically  !
 ! A8    A(3,4,5)              112.847          calculate D2E/DX2 analytically  !
 ! A9    A(3,4,8)              124.3986         calculate D2E/DX2 analytically  !
 ! A10   A(5,4,8)              122.7544         calculate D2E/DX2 analytically  !
 ! A11   A(4,5,6)              118.0393         calculate D2E/DX2 analytically  !
 ! A12   A(4,5,9)              121.8844         calculate D2E/DX2 analytically  !
 ! A13   A(6,5,9)              120.0763         calculate D2E/DX2 analytically  !
 ! A14   A(1,6,5)              123.8409         calculate D2E/DX2 analytically  !
 ! A15   A(1,6,10)             119.0565         calculate D2E/DX2 analytically  !
 ! A16   A(5,6,10)             117.1025         calculate D2E/DX2 analytically  !
 ! A17   A(6,10,11)            117.7891         calculate D2E/DX2 analytically  !
 ! A18   A(6,10,12)            117.6728         calculate D2E/DX2 analytically  !
 ! A19   A(11,10,12)           124.5377         calculate D2E/DX2 analytically  !
 ! A20   A(3,13,14)            163.6172         calculate D2E/DX2 analytically  !
 ! D1    D(6,1,2,3)              0.0124         calculate D2E/DX2 analytically  !
 ! D2    D(7,1,2,3)           -179.9869         calculate D2E/DX2 analytically  !
 ! D3    D(2,1,6,5)             -0.0201         calculate D2E/DX2 analytically  !
 ! D4    D(2,1,6,10)           179.9988         calculate D2E/DX2 analytically  !
 ! D5    D(7,1,6,5)            179.9792         calculate D2E/DX2 analytically  !
 ! D6    D(7,1,6,10)            -0.0019         calculate D2E/DX2 analytically  !
 ! D7    D(1,2,3,4)             -0.0054         calculate D2E/DX2 analytically  !
 ! D8    D(1,2,3,13)          -179.9891         calculate D2E/DX2 analytically  !
 ! D9    D(2,3,4,5)              0.004          calculate D2E/DX2 analytically  !
 ! D10   D(2,3,4,8)            179.9991         calculate D2E/DX2 analytically  !
 ! D11   D(13,3,4,5)           179.9875         calculate D2E/DX2 analytically  !
 ! D12   D(13,3,4,8)            -0.0174         calculate D2E/DX2 analytically  !
 ! D13   D(2,3,13,14)           -0.1222         calculate D2E/DX2 analytically  !
 ! D14   D(4,3,13,14)          179.8904         calculate D2E/DX2 analytically  !
 ! D15   D(3,4,5,6)             -0.0092         calculate D2E/DX2 analytically  !
 ! D16   D(3,4,5,9)            179.9875         calculate D2E/DX2 analytically  !
 ! D17   D(8,4,5,6)            179.9956         calculate D2E/DX2 analytically  !
 ! D18   D(8,4,5,9)             -0.0076         calculate D2E/DX2 analytically  !
 ! D19   D(4,5,6,1)              0.0182         calculate D2E/DX2 analytically  !
 ! D20   D(4,5,6,10)           179.9996         calculate D2E/DX2 analytically  !
 ! D21   D(9,5,6,1)           -179.9787         calculate D2E/DX2 analytically  !
 ! D22   D(9,5,6,10)             0.0028         calculate D2E/DX2 analytically  !
 ! D23   D(1,6,10,11)           -0.4726         calculate D2E/DX2 analytically  !
 ! D24   D(1,6,10,12)          179.7214         calculate D2E/DX2 analytically  !
 ! D25   D(5,6,10,11)          179.5451         calculate D2E/DX2 analytically  !
 ! D26   D(5,6,10,12)           -0.261          calculate D2E/DX2 analytically  !
 --------------------------------------------------------------------------------
 Trust Radius=3.00D-01 FncErr=1.00D-07 GrdErr=1.00D-06
 Number of steps in this run=     70 maximum allowed number of steps=    100.
 Search for a saddle point of order  1.
 GradGradGradGradGradGradGradGradGradGradGradGradGradGradGradGradGradGrad

                          Input orientation:                          
 ---------------------------------------------------------------------
 Center     Atomic      Atomic             Coordinates (Angstroms)
 Number     Number       Type             X           Y           Z
 ---------------------------------------------------------------------
      1          6           0       -1.991050   -0.184880   -0.647420
      2          6           0       -0.572380   -0.189880   -0.759260
      3          6           0       -0.051030    0.900900   -0.179890
      4          6           0       -0.583040    2.006710    0.488840
      5          6           0       -1.968090    1.969850    0.574290
      6          6           0       -2.638890    0.869200    0.000640
      7          1           0       -2.596790   -0.991880   -1.058910
      8          1           0        0.011990    2.819600    0.904780
      9          1           0       -2.533710    2.756630    1.064690
     10          7           0       -4.123090    0.850850    0.104230
     11          8           0       -4.719440   -0.095620   -0.397490
     12          8           0       -4.666610    1.788690    0.684400
     13          7           0        1.546890    0.928810   -0.287140
     14          7           0        2.604770    0.674410   -0.512360
 ---------------------------------------------------------------------
                    Distance matrix (angstroms):
                    1          2          3          4          5
     1  C    0.000000
     2  C    1.423080   0.000000
     3  C    2.271823   1.340625   0.000000
     4  C    2.841944   2.526435   1.397516   0.000000
     5  C    2.477088   2.896687   2.320897   1.388173   0.000000
     6  C    1.396697   2.443269   2.594343   2.399747   1.410843
     7  H    1.089722   2.198006   3.291836   3.929664   3.440124
     8  H    3.930445   3.488193   2.204969   1.089888   2.179912
     9  H    3.446488   3.981900   3.340122   2.167740   1.086021
    10  N    2.486626   3.799510   4.082267   3.743780   2.473286
    11  O    2.741267   4.163877   4.778541   4.723894   3.574975
    12  O    3.581528   4.770913   4.778990   4.094059   2.706835
    13  N    3.726544   2.442472   1.601758   2.510103   3.765755
    14  N    4.677412   3.301854   2.686095   3.597160   4.875451
                    6          7          8          9         10
     6  C    0.000000
     7  H    2.141970   0.000000
     8  H    3.413018   5.018883   0.000000
     9  H    2.169253   4.308710   2.551495   0.000000
    10  N    1.487924   2.660477   4.649273   2.660941   0.000000
    11  O    2.327676   2.397165   5.707963   3.879525   1.226035
    12  O    2.329085   3.880059   4.795898   2.372929   1.229453
    13  N    4.196084   4.631929   2.711398   4.671153   5.684006
    14  N    5.272294   5.489214   3.651388   5.764261   6.758359
                   11         12         13         14
    11  O    0.000000
    12  O    2.173454   0.000000
    13  N    6.350474   6.347509   0.000000
    14  N    7.365473   7.452974   1.111105   0.000000
 Stoichiometry    C6H3N3O2
 Framework group  C1[X(C6H3N3O2)]
 Deg. of freedom    36
 Full point group                 C1      NOp   1
 Largest Abelian subgroup         C1      NOp   1
 Largest concise Abelian subgroup C1      NOp   1
                         Standard orientation:                         
 ---------------------------------------------------------------------
 Center     Atomic      Atomic             Coordinates (Angstroms)
 Number     Number       Type             X           Y           Z
 ---------------------------------------------------------------------
      1          6           0        0.273415   -1.234075   -0.002655
      2          6           0       -1.149663   -1.236291   -0.002312
      3          6           0       -1.621986    0.018374   -0.000092
      4          6           0       -1.037159    1.287635    0.001990
      5          6           0        0.350258    1.241817    0.001606
      6          6           0        0.972001   -0.024638   -0.000535
      7          1           0        0.843550   -2.162750   -0.004565
      8          1           0       -1.596257    2.223190    0.003663
      9          1           0        0.954025    2.144537    0.002844
     10          7           0        2.459718   -0.049428   -0.000917
     11          8           0        3.013170   -1.143415    0.005843
     12          8           0        3.048764    1.029723   -0.004311
     13          7           0       -3.223342    0.054259    0.000642
     14          7           0       -4.296088   -0.235169   -0.000040
 ---------------------------------------------------------------------
 Rotational constants (GHZ):      3.9471959      0.5870934      0.5110786
 Standard basis: Aug-CC-pVDZ (5D, 7F)
 There are   280 symmetry adapted basis functions of A   symmetry.
 Integral buffers will be    131072 words long.
 Raffenetti 2 integral format.
 Two-electron integral symmetry is turned on.
   280 basis functions,   506 primitive gaussians,   302 cartesian basis functions
    38 alpha electrons       38 beta electrons
       nuclear repulsion energy       527.4783758593 Hartrees.
 NAtoms=   14 NActive=   14 NUniq=   14 SFac= 1.00D+00 NAtFMM=   50 NAOKFM=F Big=F
 One-electron integrals computed using PRISM.
 NBasis=   280 RedAO= T  NBF=   280
 NBsUse=   280 1.00D-06 NBFU=   280
 Harris functional with IExCor=  402 diagonalized for initial guess.
 ExpMin= 2.97D-02 ExpMax= 1.17D+04 ExpMxC= 4.01D+02 IAcc=3 IRadAn=         0 AccDes= 0.00D+00
 HarFok:  IExCor=  402 AccDes= 0.00D+00 IRadAn=         0 IDoV= 1
 ScaDFX=  1.000000  1.000000  1.000000  1.000000
 FoFCou: FMM=F IPFlag=           0 FMFlag=      100000 FMFlg1=           0
         NFxFlg=           0 DoJE=T BraDBF=F KetDBF=T FulRan=T
         Omega=  0.000000  0.000000  1.000000  0.000000  0.000000 ICntrl=     500 IOpCl=  0
         NMat0=    1 NMatS0=    1 NMatT0=    0 NMatD0=    1 NMtDS0=    0 NMtDT0=    0
         I1Cent=           4 NGrid=           0.
 Petite list used in FoFCou.
 Initial guess orbital symmetries:
       Occupied  (A) (A) (A) (A) (A) (A) (A) (A) (A) (A) (A) (A)
                 (A) (A) (A) (A) (A) (A) (A) (A) (A) (A) (A) (A)
                 (A) (A) (A) (A) (A) (A) (A) (A) (A) (A) (A) (A)
                 (A) (A)
       Virtual   (A) (A) (A) (A) (A) (A) (A) (A) (A) (A) (A) (A)
                 (A) (A) (A) (A) (A) (A) (A) (A) (A) (A) (A) (A)
                 (A) (A) (A) (A) (A) (A) (A) (A) (A) (A) (A) (A)
                 (A) (A) (A) (A) (A) (A) (A) (A) (A) (A) (A) (A)
                 (A) (A) (A) (A) (A) (A) (A) (A) (A) (A) (A) (A)
                 (A) (A) (A) (A) (A) (A) (A) (A) (A) (A) (A) (A)
                 (A) (A) (A) (A) (A) (A) (A) (A) (A) (A) (A) (A)
                 (A) (A) (A) (A) (A) (A) (A) (A) (A) (A) (A) (A)
                 (A) (A) (A) (A) (A) (A) (A) (A) (A) (A) (A) (A)
                 (A) (A) (A) (A) (A) (A) (A) (A) (A) (A) (A) (A)
                 (A) (A) (A) (A) (A) (A) (A) (A) (A) (A) (A) (A)
                 (A) (A) (A) (A) (A) (A) (A) (A) (A) (A) (A) (A)
                 (A) (A) (A) (A) (A) (A) (A) (A) (A) (A) (A) (A)
                 (A) (A) (A) (A) (A) (A) (A) (A) (A) (A) (A) (A)
                 (A) (A) (A) (A) (A) (A) (A) (A) (A) (A) (A) (A)
                 (A) (A) (A) (A) (A) (A) (A) (A) (A) (A) (A) (A)
                 (A) (A) (A) (A) (A) (A) (A) (A) (A) (A) (A) (A)
                 (A) (A) (A) (A) (A) (A) (A) (A) (A) (A) (A) (A)
                 (A) (A) (A) (A) (A) (A) (A) (A) (A) (A) (A) (A)
                 (A) (A) (A) (A) (A) (A) (A) (A) (A) (A) (A) (A)
                 (A) (A)
 The electronic state of the initial guess is 1-A.
 Requested convergence on RMS density matrix=1.00D-08 within 128 cycles.
 Requested convergence on MAX density matrix=1.00D-06.
 Requested convergence on             energy=1.00D-06.
 No special actions if energy rises.
 EnCoef did     2 forward-backward iterations
 EnCoef did     2 forward-backward iterations
 SCF Done:  E(RB3LYP) =  -544.973394416     A.U. after   19 cycles
             Convg  =    0.3509D-08             -V/T =  2.0061
 Range of M.O.s used for correlation:     1   280
 NBasis=   280 NAE=    38 NBE=    38 NFC=     0 NFV=     0
 NROrb=    280 NOA=    38 NOB=    38 NVA=   242 NVB=   242

 **** Warning!!: The largest alpha MO coefficient is  0.10692602D+03

 Symmetrizing basis deriv contribution to polar:
 IMax=3 JMax=2 DiffMx= 0.00D+00
 G2DrvN: will do    15 centers at a time, making    1 passes doing MaxLOS=2.
 Calling FoFCou, ICntrl=  3107 FMM=F I1Cent=   0 AccDes= 0.00D+00.
 FoFDir/FoFCou used for L=0 through L=2.
 End of G2Drv Frequency-dependent properties file   721 does not exist.
 End of G2Drv Frequency-dependent properties file   722 does not exist.
          IDoAtm=11111111111111
          Differentiating once with respect to nuclear coordinates.
          There are    45 degrees of freedom in the 1st order CPHF.  IDoFFX=5.
     39 vectors produced by pass  0 Test12= 2.04D-10 2.22D-07 XBig12= 7.62D-01 2.91D-01.
 AX will form    39 AO Fock derivatives at one time.
     39 vectors produced by pass  1 Test12= 2.04D-10 2.22D-07 XBig12= 3.61D-01 2.85D-01.
     39 vectors produced by pass  2 Test12= 2.04D-10 2.22D-07 XBig12= 5.22D-03 1.09D-02.
     39 vectors produced by pass  3 Test12= 2.04D-10 2.22D-07 XBig12= 8.48D-05 1.85D-03.
     39 vectors produced by pass  4 Test12= 2.04D-10 2.22D-07 XBig12= 3.47D-07 1.02D-04.
     20 vectors produced by pass  5 Test12= 2.04D-10 2.22D-07 XBig12= 6.00D-10 3.13D-06.
      1 vectors produced by pass  6 Test12= 2.04D-10 2.22D-07 XBig12= 3.06D-12 2.39D-07.
 Inverted reduced A of dimension   216 with in-core refinement.
 End of Minotr Frequency-dependent properties file   721 does not exist.
 End of Minotr Frequency-dependent properties file   722 does not exist.

 **********************************************************************

            Population analysis using the SCF density.

 **********************************************************************

 Orbital symmetries:
       Occupied  (A) (A) (A) (A) (A) (A) (A) (A) (A) (A) (A) (A)
                 (A) (A) (A) (A) (A) (A) (A) (A) (A) (A) (A) (A)
                 (A) (A) (A) (A) (A) (A) (A) (A) (A) (A) (A) (A)
                 (A) (A)
       Virtual   (A) (A) (A) (A) (A) (A) (A) (A) (A) (A) (A) (A)
                 (A) (A) (A) (A) (A) (A) (A) (A) (A) (A) (A) (A)
                 (A) (A) (A) (A) (A) (A) (A) (A) (A) (A) (A) (A)
                 (A) (A) (A) (A) (A) (A) (A) (A) (A) (A) (A) (A)
                 (A) (A) (A) (A) (A) (A) (A) (A) (A) (A) (A) (A)
                 (A) (A) (A) (A) (A) (A) (A) (A) (A) (A) (A) (A)
                 (A) (A) (A) (A) (A) (A) (A) (A) (A) (A) (A) (A)
                 (A) (A) (A) (A) (A) (A) (A) (A) (A) (A) (A) (A)
                 (A) (A) (A) (A) (A) (A) (A) (A) (A) (A) (A) (A)
                 (A) (A) (A) (A) (A) (A) (A) (A) (A) (A) (A) (A)
                 (A) (A) (A) (A) (A) (A) (A) (A) (A) (A) (A) (A)
                 (A) (A) (A) (A) (A) (A) (A) (A) (A) (A) (A) (A)
                 (A) (A) (A) (A) (A) (A) (A) (A) (A) (A) (A) (A)
                 (A) (A) (A) (A) (A) (A) (A) (A) (A) (A) (A) (A)
                 (A) (A) (A) (A) (A) (A) (A) (A) (A) (A) (A) (A)
                 (A) (A) (A) (A) (A) (A) (A) (A) (A) (A) (A) (A)
                 (A) (A) (A) (A) (A) (A) (A) (A) (A) (A) (A) (A)
                 (A) (A) (A) (A) (A) (A) (A) (A) (A) (A) (A) (A)
                 (A) (A) (A) (A) (A) (A) (A) (A) (A) (A) (A) (A)
                 (A) (A) (A) (A) (A) (A) (A) (A) (A) (A) (A) (A)
                 (A) (A)
 The electronic state is 1-A.
 Alpha  occ. eigenvalues --  -19.19290 -19.19279 -14.57950 -14.54204 -14.51786
 Alpha  occ. eigenvalues --  -10.29272 -10.26924 -10.24858 -10.23603 -10.23027
 Alpha  occ. eigenvalues --  -10.18754  -1.24255  -1.20584  -1.06999  -0.91735
 Alpha  occ. eigenvalues --   -0.84519  -0.79006  -0.75481  -0.66192  -0.64973
 Alpha  occ. eigenvalues --   -0.58680  -0.57004  -0.54948  -0.54846  -0.54610
 Alpha  occ. eigenvalues --   -0.53581  -0.52612  -0.48901  -0.47706  -0.44330
 Alpha  occ. eigenvalues --   -0.41189  -0.40810  -0.32801  -0.32662  -0.30911
 Alpha  occ. eigenvalues --   -0.30743  -0.28669  -0.23165
 Alpha virt. eigenvalues --   -0.12848  -0.12024  -0.08943  -0.04852  -0.02639
 Alpha virt. eigenvalues --   -0.00502   0.00461   0.00982   0.01924   0.03236
 Alpha virt. eigenvalues --    0.03451   0.04512   0.05162   0.06497   0.06593
 Alpha virt. eigenvalues --    0.07352   0.07419   0.08201   0.09208   0.09720
 Alpha virt. eigenvalues --    0.10202   0.10520   0.11410   0.11782   0.11909
 Alpha virt. eigenvalues --    0.12319   0.12584   0.13055   0.13362   0.14388
 Alpha virt. eigenvalues --    0.15583   0.16306   0.17045   0.17424   0.17708
 Alpha virt. eigenvalues --    0.18603   0.19151   0.19525   0.20557   0.21197
 Alpha virt. eigenvalues --    0.22035   0.22144   0.22546   0.23240   0.23536
 Alpha virt. eigenvalues --    0.24671   0.25539   0.26378   0.26726   0.27156
 Alpha virt. eigenvalues --    0.27229   0.27945   0.28749   0.29190   0.29357
 Alpha virt. eigenvalues --    0.29742   0.30196   0.32084   0.32225   0.32376
 Alpha virt. eigenvalues --    0.34336   0.35710   0.35929   0.36593   0.37117
 Alpha virt. eigenvalues --    0.37142   0.39289   0.40314   0.42120   0.42927
 Alpha virt. eigenvalues --    0.43718   0.44727   0.45264   0.45814   0.47737
 Alpha virt. eigenvalues --    0.48201   0.49475   0.50146   0.50980   0.52501
 Alpha virt. eigenvalues --    0.53457   0.54363   0.54864   0.55378   0.55468
 Alpha virt. eigenvalues --    0.56729   0.59136   0.59144   0.59271   0.60228
 Alpha virt. eigenvalues --    0.61129   0.61430   0.63263   0.63759   0.65545
 Alpha virt. eigenvalues --    0.65663   0.66846   0.68966   0.69746   0.70140
 Alpha virt. eigenvalues --    0.70478   0.71330   0.71747   0.72316   0.72821
 Alpha virt. eigenvalues --    0.73086   0.74864   0.75018   0.75902   0.76241
 Alpha virt. eigenvalues --    0.77629   0.79934   0.81195   0.82496   0.83179
 Alpha virt. eigenvalues --    0.83472   0.85585   0.86866   0.87051   0.87766
 Alpha virt. eigenvalues --    0.90783   0.92059   0.92378   0.93675   0.95769
 Alpha virt. eigenvalues --    0.98432   1.02698   1.02989   1.05094   1.05254
 Alpha virt. eigenvalues --    1.06392   1.08351   1.08506   1.09014   1.09985
 Alpha virt. eigenvalues --    1.11610   1.14152   1.16099   1.18561   1.20210
 Alpha virt. eigenvalues --    1.20871   1.22475   1.24041   1.25984   1.27599
 Alpha virt. eigenvalues --    1.27915   1.29249   1.29633   1.30034   1.32116
 Alpha virt. eigenvalues --    1.34074   1.36119   1.38107   1.38559   1.40172
 Alpha virt. eigenvalues --    1.41369   1.42315   1.43906   1.44915   1.46723
 Alpha virt. eigenvalues --    1.48012   1.48243   1.49882   1.51677   1.52946
 Alpha virt. eigenvalues --    1.55726   1.56791   1.60664   1.62382   1.62944
 Alpha virt. eigenvalues --    1.63954   1.65880   1.67189   1.69115   1.69456
 Alpha virt. eigenvalues --    1.69941   1.75490   1.76968   1.79397   1.82802
 Alpha virt. eigenvalues --    1.85317   1.85702   1.86350   1.89793   1.90610
 Alpha virt. eigenvalues --    1.91979   1.94289   1.94644   1.99259   1.99987
 Alpha virt. eigenvalues --    2.01105   2.03096   2.03213   2.04414   2.07343
 Alpha virt. eigenvalues --    2.09009   2.14935   2.18090   2.19071   2.19425
 Alpha virt. eigenvalues --    2.20422   2.24063   2.26577   2.28998   2.29845
 Alpha virt. eigenvalues --    2.31902   2.33729   2.33765   2.37585   2.41894
 Alpha virt. eigenvalues --    2.44840   2.48581   2.50507   2.56101   2.58525
 Alpha virt. eigenvalues --    2.64943   2.73319   2.74749   2.78230   2.81623
 Alpha virt. eigenvalues --    2.85276   2.87332   2.95108   3.00072   3.07275
 Alpha virt. eigenvalues --    3.10307   3.16300   3.28090   3.28172   3.28590
 Alpha virt. eigenvalues --    3.30579   3.36199   3.38777   3.39845   3.41496
 Alpha virt. eigenvalues --    3.46258   3.58778   3.59830   3.77807   3.80166
 Alpha virt. eigenvalues --    3.83982   4.11900
          Condensed to atoms (all electrons):
              1          2          3          4          5          6
     1  C    9.732046   0.010947   0.060638  -2.083837  -0.574897  -1.495991
     2  C    0.010947  10.853814  -0.139317  -0.923671  -1.662890  -0.186243
     3  C    0.060638  -0.139317  10.395388  -4.329883   0.962663  -2.441314
     4  C   -2.083837  -0.923671  -4.329883  17.338659  -4.700054   1.621822
     5  C   -0.574897  -1.662890   0.962663  -4.700054  16.143719  -4.262026
     6  C   -1.495991  -0.186243  -2.441314   1.621822  -4.262026  11.333981
     7  H   -0.807463  -0.184538  -0.052223   0.055202   0.091238   0.250995
     8  H    0.175321   0.001896   1.362501  -2.268016   0.854553  -0.730511
     9  H    0.185845   0.068155  -0.661773   0.627901  -2.270375   1.309544
    10  N    0.109896  -0.076894   0.122325  -0.221443   0.183943  -0.507796
    11  O   -0.053136  -0.054955   0.006864  -0.047744   0.065070   0.142243
    12  O   -0.035041  -0.008548   0.009013  -0.055583   0.036241   0.119966
    13  N   -0.023996  -0.222430   0.106867   0.267108  -0.203275   0.051127
    14  N   -0.049661   0.131968  -0.278449  -0.178740  -0.034232   0.041408
              7          8          9         10         11         12
     1  C   -0.807463   0.175321   0.185845   0.109896  -0.053136  -0.035041
     2  C   -0.184538   0.001896   0.068155  -0.076894  -0.054955  -0.008548
     3  C   -0.052223   1.362501  -0.661773   0.122325   0.006864   0.009013
     4  C    0.055202  -2.268016   0.627901  -0.221443  -0.047744  -0.055583
     5  C    0.091238   0.854553  -2.270375   0.183943   0.065070   0.036241
     6  C    0.250995  -0.730511   1.309544  -0.507796   0.142243   0.119966
     7  H    2.470000   0.007774  -0.011672  -0.089676  -0.023597  -0.010788
     8  H    0.007774   2.690463  -0.217546   0.021392  -0.001377  -0.002833
     9  H   -0.011672  -0.217546   2.966019  -0.143527  -0.009646  -0.015874
    10  N   -0.089676   0.021392  -0.143527   7.785949  -0.453169  -0.440574
    11  O   -0.023597  -0.001377  -0.009646  -0.453169   9.155437  -0.054153
    12  O   -0.010788  -0.002833  -0.015874  -0.440574  -0.054153   9.142229
    13  N   -0.006028  -0.122723  -0.006461  -0.005791  -0.000202   0.000079
    14  N    0.005985  -0.011875  -0.001094  -0.000971  -0.000047  -0.000015
             13         14
     1  C   -0.023996  -0.049661
     2  C   -0.222430   0.131968
     3  C    0.106867  -0.278449
     4  C    0.267108  -0.178740
     5  C   -0.203275  -0.034232
     6  C    0.051127   0.041408
     7  H   -0.006028   0.005985
     8  H   -0.122723  -0.011875
     9  H   -0.006461  -0.001094
    10  N   -0.005791  -0.000971
    11  O   -0.000202  -0.000047
    12  O    0.000079  -0.000015
    13  N    8.064979  -1.379664
    14  N   -1.379664   9.462833
 Mulliken atomic charges:
              1
     1  C    0.849330
     2  C   -1.607295
     3  C    0.876700
     4  C    0.898279
     5  C    1.370321
     6  C    0.752795
     7  H   -0.695211
     8  H   -0.759018
     9  H   -0.819495
    10  N    0.716336
    11  O   -0.671588
    12  O   -0.684120
    13  N    0.480411
    14  N   -0.707445
 Sum of Mulliken atomic charges =   0.00000
 Mulliken charges with hydrogens summed into heavy atoms:
              1
     1  C    0.154119
     2  C   -1.607295
     3  C    0.876700
     4  C    0.139261
     5  C    0.550826
     6  C    0.752795
    10  N    0.716336
    11  O   -0.671588
    12  O   -0.684120
    13  N    0.480411
    14  N   -0.707445
 Sum of Mulliken charges with hydrogens summed into heavy atoms =   0.00000
 APT atomic charges:
              1
     1  C    0.022798
     2  C   -0.082449
     3  C    0.183409
     4  C    0.470510
     5  C    0.450945
     6  C    0.333336
     7  H   -0.127776
     8  H   -0.228984
     9  H   -0.193354
    10  N    0.629220
    11  O   -0.512793
    12  O   -0.525360
    13  N   -1.718521
    14  N    1.299018
 Sum of APT charges=   0.00000
 APT Atomic charges with hydrogens summed into heavy atoms:
              1
     1  C   -0.104978
     2  C   -0.082449
     3  C    0.183409
     4  C    0.241526
     5  C    0.257591
     6  C    0.333336
     7  H    0.000000
     8  H    0.000000
     9  H    0.000000
    10  N    0.629220
    11  O   -0.512793
    12  O   -0.525360
    13  N   -1.718521
    14  N    1.299018
 Sum of APT charges=   0.00000
 Electronic spatial extent (au):  <R**2>=           1940.7100
 Charge=              0.0000 electrons
 Dipole moment (field-independent basis, Debye):
    X=             -5.5216    Y=              3.1079    Z=              0.0026  Tot=              6.3362
 Quadrupole moment (field-independent basis, Debye-Ang):
   XX=            -66.4310   YY=            -63.4072   ZZ=            -61.7703
   XY=             -5.6339   XZ=             -0.0215   YZ=              0.0257
 Traceless Quadrupole moment (field-independent basis, Debye-Ang):
   XX=             -2.5615   YY=              0.4623   ZZ=              2.0992
   XY=             -5.6339   XZ=             -0.0215   YZ=              0.0257
 Octapole moment (field-independent basis, Debye-Ang**2):
  XXX=            -71.2261  YYY=             19.1700  ZZZ=              0.0153  XYY=              3.2850
  XXY=             12.0075  XXZ=              0.0017  XZZ=              6.8058  YZZ=              0.6433
  YYZ=              0.0270  XYZ=              0.0795
 Hexadecapole moment (field-independent basis, Debye-Ang**3):
 XXXX=          -2110.9801 YYYY=           -399.4468 ZZZZ=            -64.6379 XXXY=            -27.6548
 XXXZ=             -0.1471 YYYX=            -31.8249 YYYZ=              0.0243 ZZZX=             -0.0068
 ZZZY=             -0.0639 XXYY=           -428.7412 XXZZ=           -330.7239 YYZZ=            -84.2255
 XXYZ=              0.1524 YYXZ=             -0.0536 ZZXY=             -2.4997
 N-N= 5.274783758593D+02 E-N=-2.326123373384D+03  KE= 5.416899180655D+02
  Exact polarizability:   0.000   0.000   0.000   0.000   0.000   0.000
 Approx polarizability: 280.811 -17.048 225.973  -0.044  -0.021  88.645
 Calling FoFJK, ICntrl=    100147 FMM=F ISym2X=0 I1Cent= 0 IOpClX= 0 NMat=1 NMatS=1 NMatT=0.
 ***** Axes restored to original set *****
 -------------------------------------------------------------------
 Center     Atomic                   Forces (Hartrees/Bohr)
 Number     Number              X              Y              Z
 -------------------------------------------------------------------
      1        6           0.000131444   -0.000325934   -0.000193631
      2        6          -0.000053388    0.000845323    0.000483777
      3        6           0.000015415   -0.001029594   -0.000600529
      4        6           0.000259860   -0.000054675   -0.000062147
      5        6          -0.000058490   -0.000093802   -0.000022747
      6        6          -0.000011306    0.000062215    0.000209156
      7        1          -0.000038824    0.000014961    0.000009684
      8        1           0.000003970   -0.000000952   -0.000003519
      9        1           0.000001680    0.000011503    0.000006892
     10        7          -0.000015497    0.000287950   -0.000454902
     11        8           0.000014878   -0.000103775    0.000168005
     12        8           0.000034323   -0.000111519    0.000145879
     13        7          -0.000203338    0.001137557    0.000676802
     14        7          -0.000080727   -0.000639257   -0.000362720
 -------------------------------------------------------------------
 Cartesian Forces:  Max     0.001137557 RMS     0.000357727

 GradGradGradGradGradGradGradGradGradGradGradGradGradGradGradGradGradGrad
 Berny optimization.
 Internal  Forces:  Max     0.001507281 RMS     0.000235668
 Search for a saddle point.
 Step number   1 out of a maximum of   70
 All quantities printed in internal units (Hartrees-Bohrs-Radians)
 Swaping is turned off.
 Second derivative matrix not updated -- analytic derivatives used.
 ITU=  0
     Eigenvalues ---   -0.06635   0.00075   0.00115   0.01075   0.01780
     Eigenvalues ---    0.01790   0.02119   0.02164   0.02899   0.03132
     Eigenvalues ---    0.03865   0.06590   0.10271   0.11014   0.11174
     Eigenvalues ---    0.11849   0.14626   0.16585   0.17058   0.20552
     Eigenvalues ---    0.22378   0.23902   0.28583   0.33264   0.35893
     Eigenvalues ---    0.36055   0.37595   0.37868   0.40922   0.43805
     Eigenvalues ---    0.45731   0.50028   0.53553   0.58269   0.77534
     Eigenvalues ---    1.43478
 Eigenvectors required to have negative eigenvalues:
                          R6        A20       R4        A7        R5
   1                    0.88117  -0.35371  -0.20961  -0.12525  -0.07979
                          A5        A1        A8        A4        A6
   1                    0.07624  -0.07514  -0.06864   0.06179   0.04902
 RFO step:  Lambda0=4.158075808D-06 Lambda=-3.78632204D-05.
 Linear search not attempted -- option 19 set.
 Iteration  1 RMS(Cart)=  0.00576078 RMS(Int)=  0.00004902
 Iteration  2 RMS(Cart)=  0.00004262 RMS(Int)=  0.00000058
 Iteration  3 RMS(Cart)=  0.00000000 RMS(Int)=  0.00000058
 Variable       Old X    -DE/DX   Delta X   Delta X   Delta X     New X
                                 (Linear)    (Quad)   (Total)
    R1        2.68923  -0.00017   0.00000  -0.00118  -0.00118   2.68805
    R2        2.63938   0.00006   0.00000   0.00018   0.00018   2.63956
    R3        2.05928   0.00001   0.00000  -0.00005  -0.00005   2.05923
    R4        2.53341  -0.00069   0.00000  -0.00004  -0.00004   2.53338
    R5        2.64092  -0.00017   0.00000   0.00077   0.00077   2.64169
    R6        3.02688  -0.00029   0.00000  -0.01550  -0.01550   3.01138
    R7        2.62327   0.00010   0.00000  -0.00024  -0.00024   2.62303
    R8        2.05959   0.00000   0.00000   0.00014   0.00014   2.05973
    R9        2.66611  -0.00002   0.00000   0.00004   0.00003   2.66614
   R10        2.05228   0.00001   0.00000   0.00002   0.00002   2.05231
   R11        2.81177  -0.00005   0.00000   0.00012   0.00012   2.81188
   R12        2.31687   0.00001   0.00000   0.00001   0.00001   2.31689
   R13        2.32333  -0.00004   0.00000  -0.00010  -0.00010   2.32323
   R14        2.09968   0.00014   0.00000   0.00097   0.00097   2.10065
    A1        2.09615  -0.00022   0.00000  -0.00163  -0.00163   2.09452
    A2        2.11983   0.00015   0.00000   0.00126   0.00126   2.12109
    A3        2.06721   0.00007   0.00000   0.00037   0.00037   2.06757
    A4        1.92928   0.00033   0.00000   0.00384   0.00384   1.93312
    A5        2.34978   0.00002   0.00000  -0.00403  -0.00403   2.34576
    A6        1.95325   0.00014   0.00000   0.00113   0.00113   1.95438
    A7        1.98016  -0.00016   0.00000   0.00290   0.00290   1.98305
    A8        1.96955  -0.00007   0.00000   0.00154   0.00154   1.97109
    A9        2.17117   0.00003   0.00000  -0.00116  -0.00116   2.17000
   A10        2.14247   0.00003   0.00000  -0.00038  -0.00038   2.14209
   A11        2.06017   0.00001   0.00000   0.00016   0.00016   2.06033
   A12        2.12728  -0.00001   0.00000   0.00019   0.00019   2.12747
   A13        2.09573   0.00000   0.00000  -0.00035  -0.00035   2.09538
   A14        2.16143  -0.00006   0.00000   0.00012   0.00012   2.16155
   A15        2.07793  -0.00001   0.00000  -0.00017  -0.00017   2.07775
   A16        2.04382   0.00006   0.00000   0.00005   0.00005   2.04388
   A17        2.05581  -0.00001   0.00000  -0.00012  -0.00012   2.05569
   A18        2.05378   0.00000   0.00000   0.00005   0.00004   2.05382
   A19        2.17359   0.00001   0.00000   0.00008   0.00008   2.17367
   A20        2.85566  -0.00151   0.00000  -0.01731  -0.01731   2.83835
    D1        0.00022   0.00000   0.00000  -0.00020  -0.00020   0.00002
    D2       -3.14136   0.00000   0.00000  -0.00021  -0.00021  -3.14158
    D3       -0.00035   0.00000   0.00000   0.00033   0.00033  -0.00002
    D4        3.14157  -0.00001   0.00000   0.00001   0.00001   3.14159
    D5        3.14123   0.00000   0.00000   0.00034   0.00034   3.14157
    D6       -0.00003   0.00000   0.00000   0.00003   0.00003   0.00000
    D7       -0.00009   0.00000   0.00000   0.00008   0.00008  -0.00002
    D8       -3.14140   0.00000   0.00000  -0.00020  -0.00020   3.14158
    D9        0.00007   0.00000   0.00000  -0.00006  -0.00006   0.00001
   D10        3.14158   0.00000   0.00000   0.00002   0.00002  -3.14158
   D11        3.14137   0.00001   0.00000   0.00022   0.00022  -3.14159
   D12       -0.00030   0.00000   0.00000   0.00031   0.00031   0.00000
   D13       -0.00213   0.00000   0.00000   0.00193   0.00193  -0.00020
   D14        3.13968   0.00000   0.00000   0.00172   0.00172   3.14140
   D15       -0.00016   0.00000   0.00000   0.00015   0.00015  -0.00001
   D16        3.14138   0.00000   0.00000   0.00021   0.00021   3.14158
   D17        3.14152   0.00000   0.00000   0.00007   0.00007   3.14159
   D18       -0.00013   0.00000   0.00000   0.00013   0.00013   0.00000
   D19        0.00032   0.00001   0.00000  -0.00030  -0.00030   0.00002
   D20        3.14159   0.00001   0.00000   0.00001   0.00001  -3.14159
   D21       -3.14122   0.00000   0.00000  -0.00036  -0.00036  -3.14158
   D22        0.00005   0.00000   0.00000  -0.00005  -0.00005   0.00000
   D23       -0.00825   0.00020   0.00000   0.00793   0.00793  -0.00032
   D24        3.13673  -0.00019   0.00000   0.00454   0.00454   3.14127
   D25        3.13365   0.00020   0.00000   0.00763   0.00763   3.14129
   D26       -0.00455  -0.00019   0.00000   0.00424   0.00424  -0.00031
         Item               Value     Threshold  Converged?
 Maximum Force            0.001507     0.000450     NO 
 RMS     Force            0.000236     0.000300     YES
 Maximum Displacement     0.025311     0.001800     NO 
 RMS     Displacement     0.005771     0.001200     NO 
 Predicted change in Energy=-1.686564D-05
 GradGradGradGradGradGradGradGradGradGradGradGradGradGradGradGradGradGrad

                          Input orientation:                          
 ---------------------------------------------------------------------
 Center     Atomic      Atomic             Coordinates (Angstroms)
 Number     Number       Type             X           Y           Z
 ---------------------------------------------------------------------
      1          6           0       -1.988593   -0.183489   -0.648266
      2          6           0       -0.570382   -0.185454   -0.758060
      3          6           0       -0.047396    0.904352   -0.178379
      4          6           0       -0.583039    2.008721    0.490686
      5          6           0       -1.967989    1.970536    0.575094
      6          6           0       -2.637558    0.869679    0.000360
      7          1           0       -2.593209   -0.990682   -1.060957
      8          1           0        0.010636    2.822118    0.907755
      9          1           0       -2.534878    2.756440    1.065461
     10          7           0       -4.121874    0.850038    0.102923
     11          8           0       -4.716421   -0.100812   -0.392636
     12          8           0       -4.666902    1.789318    0.679228
     13          7           0        1.542375    0.931608   -0.284686
     14          7           0        2.594760    0.661016   -0.519124
 ---------------------------------------------------------------------
                    Distance matrix (angstroms):
                    1          2          3          4          5
     1  C    0.000000
     2  C    1.422456   0.000000
     3  C    2.274299   1.340605   0.000000
     4  C    2.842283   2.524664   1.397924   0.000000
     5  C    2.477268   2.894633   2.322315   1.388045   0.000000
     6  C    1.396793   2.441664   2.596553   2.399767   1.410861
     7  H    1.089695   2.198174   3.294126   3.929986   3.440403
     8  H    3.930877   3.486834   2.204741   1.089960   2.179637
     9  H    3.446516   3.979851   3.341397   2.167747   1.086033
    10  N    2.486634   3.798241   4.084538   3.743829   2.473394
    11  O    2.741027   4.162973   4.780801   4.723900   3.575033
    12  O    3.581556   4.769381   4.781055   4.094096   2.706993
    13  N    3.720667   2.436319   1.593554   2.505746   3.760486
    14  N    4.662294   3.285076   2.675127   3.596447   4.871431
                    6          7          8          9         10
     6  C    0.000000
     7  H    2.142265   0.000000
     8  H    3.412964   5.019291   0.000000
     9  H    2.169068   4.308826   2.551240   0.000000
    10  N    1.487985   2.660767   4.649139   2.660715   0.000000
    11  O    2.327653   2.397196   5.707855   3.879313   1.226043
    12  O    2.329128   3.880315   4.795651   2.372768   1.229402
    13  N    4.190099   4.626106   2.709644   4.666573   5.678082
    14  N    5.262181   5.471445   3.658421   5.763237   6.748025
                   11         12         13         14
    11  O    0.000000
    12  O    2.173461   0.000000
    13  N    6.344295   6.341918   0.000000
    14  N    7.351854   7.445861   1.111618   0.000000
 Stoichiometry    C6H3N3O2
 Framework group  C1[X(C6H3N3O2)]
 Deg. of freedom    36
 Full point group                 C1      NOp   1
 Largest Abelian subgroup         C1      NOp   1
 Largest concise Abelian subgroup C1      NOp   1
                         Standard orientation:                         
 ---------------------------------------------------------------------
 Center     Atomic      Atomic             Coordinates (Angstroms)
 Number     Number       Type             X           Y           Z
 ---------------------------------------------------------------------
      1          6           0        0.269941   -1.232821   -0.000099
      2          6           0       -1.152513   -1.230479   -0.000083
      3          6           0       -1.625625    0.023868    0.000016
      4          6           0       -1.036323    1.291510    0.000120
      5          6           0        0.350878    1.243124    0.000105
      6          6           0        0.970480   -0.024402    0.000005
      7          1           0        0.838253   -2.162583   -0.000189
      8          1           0       -1.593370    2.228373    0.000200
      9          1           0        0.956496    2.144621    0.000169
     10          7           0        2.458213   -0.051797   -0.000006
     11          8           0        3.009619   -1.146846    0.000239
     12          8           0        3.049170    1.026255   -0.000267
     13          7           0       -3.218761    0.060362    0.000023
     14          7           0       -4.286983   -0.247206   -0.000064
 ---------------------------------------------------------------------
 Rotational constants (GHZ):      3.9447247      0.5883109      0.5119582
 Standard basis: Aug-CC-pVDZ (5D, 7F)
 There are   280 symmetry adapted basis functions of A   symmetry.
 Integral buffers will be    131072 words long.
 Raffenetti 2 integral format.
 Two-electron integral symmetry is turned on.
   280 basis functions,   506 primitive gaussians,   302 cartesian basis functions
    38 alpha electrons       38 beta electrons
       nuclear repulsion energy       527.7249604377 Hartrees.
 NAtoms=   14 NActive=   14 NUniq=   14 SFac= 1.00D+00 NAtFMM=   50 NAOKFM=F Big=F
 One-electron integrals computed using PRISM.
 NBasis=   280 RedAO= T  NBF=   280
 NBsUse=   280 1.00D-06 NBFU=   280
 Initial guess read from the read-write file.
 B after Tr=     0.000000    0.000000    0.000000
         Rot=    1.000000    0.000000    0.000000    0.000000 Ang=   0.00 deg.
 Initial guess orbital symmetries:
       Occupied  (A) (A) (A) (A) (A) (A) (A) (A) (A) (A) (A) (A)
                 (A) (A) (A) (A) (A) (A) (A) (A) (A) (A) (A) (A)
                 (A) (A) (A) (A) (A) (A) (A) (A) (A) (A) (A) (A)
                 (A) (A)
       Virtual   (A) (A) (A) (A) (A) (A) (A) (A) (A) (A) (A) (A)
                 (A) (A) (A) (A) (A) (A) (A) (A) (A) (A) (A) (A)
                 (A) (A) (A) (A) (A) (A) (A) (A) (A) (A) (A) (A)
                 (A) (A) (A) (A) (A) (A) (A) (A) (A) (A) (A) (A)
                 (A) (A) (A) (A) (A) (A) (A) (A) (A) (A) (A) (A)
                 (A) (A) (A) (A) (A) (A) (A) (A) (A) (A) (A) (A)
                 (A) (A) (A) (A) (A) (A) (A) (A) (A) (A) (A) (A)
                 (A) (A) (A) (A) (A) (A) (A) (A) (A) (A) (A) (A)
                 (A) (A) (A) (A) (A) (A) (A) (A) (A) (A) (A) (A)
                 (A) (A) (A) (A) (A) (A) (A) (A) (A) (A) (A) (A)
                 (A) (A) (A) (A) (A) (A) (A) (A) (A) (A) (A) (A)
                 (A) (A) (A) (A) (A) (A) (A) (A) (A) (A) (A) (A)
                 (A) (A) (A) (A) (A) (A) (A) (A) (A) (A) (A) (A)
                 (A) (A) (A) (A) (A) (A) (A) (A) (A) (A) (A) (A)
                 (A) (A) (A) (A) (A) (A) (A) (A) (A) (A) (A) (A)
                 (A) (A) (A) (A) (A) (A) (A) (A) (A) (A) (A) (A)
                 (A) (A) (A) (A) (A) (A) (A) (A) (A) (A) (A) (A)
                 (A) (A) (A) (A) (A) (A) (A) (A) (A) (A) (A) (A)
                 (A) (A) (A) (A) (A) (A) (A) (A) (A) (A) (A) (A)
                 (A) (A) (A) (A) (A) (A) (A) (A) (A) (A) (A) (A)
                 (A) (A)
 Harris functional with IExCor=  402 diagonalized for initial guess.
 ExpMin= 2.97D-02 ExpMax= 1.17D+04 ExpMxC= 4.01D+02 IAcc=3 IRadAn=         0 AccDes= 0.00D+00
 HarFok:  IExCor=  402 AccDes= 0.00D+00 IRadAn=         0 IDoV= 1
 ScaDFX=  1.000000  1.000000  1.000000  1.000000
 FoFCou: FMM=F IPFlag=           0 FMFlag=      100000 FMFlg1=           0
         NFxFlg=           0 DoJE=T BraDBF=F KetDBF=T FulRan=T
         Omega=  0.000000  0.000000  1.000000  0.000000  0.000000 ICntrl=     500 IOpCl=  0
         NMat0=    1 NMatS0=    1 NMatT0=    0 NMatD0=    1 NMtDS0=    0 NMtDT0=    0
         I1Cent=           4 NGrid=           0.
 Petite list used in FoFCou.
 Requested convergence on RMS density matrix=1.00D-08 within 128 cycles.
 Requested convergence on MAX density matrix=1.00D-06.
 Requested convergence on             energy=1.00D-06.
 No special actions if energy rises.
 SCF Done:  E(RB3LYP) =  -544.973410446     A.U. after   13 cycles
             Convg  =    0.6399D-08             -V/T =  2.0061
 Calling FoFJK, ICntrl=      2127 FMM=F ISym2X=0 I1Cent= 0 IOpClX= 0 NMat=1 NMatS=1 NMatT=0.
 ***** Axes restored to original set *****
 -------------------------------------------------------------------
 Center     Atomic                   Forces (Hartrees/Bohr)
 Number     Number              X              Y              Z
 -------------------------------------------------------------------
      1        6          -0.000001014    0.000001800    0.000000236
      2        6          -0.000015193    0.000002369    0.000003234
      3        6          -0.000060553   -0.000008822   -0.000000476
      4        6           0.000005873   -0.000001252   -0.000001107
      5        6           0.000000345    0.000000679    0.000000149
      6        6           0.000000885    0.000002525    0.000001541
      7        1          -0.000004225    0.000001382    0.000001098
      8        1           0.000003382   -0.000001754   -0.000001111
      9        1           0.000003929    0.000001617    0.000000723
     10        7           0.000000653    0.000004415    0.000002597
     11        8          -0.000002295    0.000004255    0.000002853
     12        8           0.000001843    0.000005669    0.000002809
     13        7           0.000042730   -0.000022929   -0.000016041
     14        7           0.000023639    0.000010046    0.000003494
 -------------------------------------------------------------------
 Cartesian Forces:  Max     0.000060553 RMS     0.000013346

 GradGradGradGradGradGradGradGradGradGradGradGradGradGradGradGradGradGrad
 Berny optimization.
 Internal  Forces:  Max     0.000068002 RMS     0.000012129
 Search for a saddle point.
 Step number   2 out of a maximum of   70
 All quantities printed in internal units (Hartrees-Bohrs-Radians)
 Swaping is turned off.
 Update second derivatives using D2CorX and points    1    2
 ITU=  0  0
     Eigenvalues ---   -0.06550   0.00053   0.00115   0.01075   0.01780
     Eigenvalues ---    0.01790   0.02119   0.02164   0.02899   0.03132
     Eigenvalues ---    0.03865   0.06837   0.10271   0.11014   0.11172
     Eigenvalues ---    0.11849   0.14635   0.16597   0.17068   0.20556
     Eigenvalues ---    0.22379   0.23905   0.28583   0.33264   0.35893
     Eigenvalues ---    0.36056   0.37596   0.37870   0.40922   0.43807
     Eigenvalues ---    0.45731   0.50029   0.53557   0.58269   0.77534
     Eigenvalues ---    1.43490
 Eigenvectors required to have negative eigenvalues:
                          R6        A20       R4        A7        R5
   1                    0.87707  -0.36418  -0.20986  -0.12319  -0.07991
                          A1        A5        A8        A4        A2
   1                   -0.07575   0.07545  -0.06866   0.06295   0.04904
 RFO step:  Lambda0=2.859406602D-08 Lambda=-8.03605035D-08.
 Linear search not attempted -- option 19 set.
 Iteration  1 RMS(Cart)=  0.00036519 RMS(Int)=  0.00000028
 Iteration  2 RMS(Cart)=  0.00000023 RMS(Int)=  0.00000000
 Variable       Old X    -DE/DX   Delta X   Delta X   Delta X     New X
                                 (Linear)    (Quad)   (Total)
    R1        2.68805   0.00000   0.00000   0.00005   0.00005   2.68810
    R2        2.63956   0.00000   0.00000  -0.00002  -0.00002   2.63954
    R3        2.05923   0.00000   0.00000   0.00000   0.00000   2.05923
    R4        2.53338   0.00000   0.00000   0.00015   0.00015   2.53353
    R5        2.64169   0.00000   0.00000   0.00005   0.00005   2.64175
    R6        3.01138   0.00007   0.00000  -0.00022  -0.00022   3.01117
    R7        2.62303   0.00000   0.00000  -0.00002  -0.00002   2.62300
    R8        2.05973   0.00000   0.00000   0.00000   0.00000   2.05973
    R9        2.66614   0.00000   0.00000   0.00000   0.00000   2.66615
   R10        2.05231   0.00000   0.00000   0.00000   0.00000   2.05230
   R11        2.81188   0.00000   0.00000   0.00001   0.00001   2.81189
   R12        2.31689   0.00000   0.00000   0.00000   0.00000   2.31688
   R13        2.32323   0.00000   0.00000   0.00000   0.00000   2.32323
   R14        2.10065   0.00002   0.00000  -0.00001  -0.00001   2.10064
    A1        2.09452   0.00000   0.00000   0.00011   0.00011   2.09463
    A2        2.12109   0.00000   0.00000  -0.00007  -0.00007   2.12102
    A3        2.06757   0.00000   0.00000  -0.00004  -0.00004   2.06754
    A4        1.93312   0.00000   0.00000  -0.00015  -0.00015   1.93297
    A5        2.34576   0.00000   0.00000   0.00003   0.00003   2.34579
    A6        1.95438   0.00002   0.00000   0.00007   0.00007   1.95445
    A7        1.98305  -0.00002   0.00000  -0.00011  -0.00011   1.98295
    A8        1.97109   0.00000   0.00000   0.00003   0.00003   1.97112
    A9        2.17000   0.00000   0.00000   0.00000   0.00000   2.17000
   A10        2.14209   0.00000   0.00000  -0.00002  -0.00002   2.14207
   A11        2.06033   0.00000   0.00000  -0.00003  -0.00003   2.06030
   A12        2.12747   0.00000   0.00000   0.00001   0.00001   2.12748
   A13        2.09538   0.00000   0.00000   0.00002   0.00002   2.09540
   A14        2.16155   0.00000   0.00000   0.00000   0.00000   2.16156
   A15        2.07775   0.00000   0.00000   0.00001   0.00001   2.07777
   A16        2.04388   0.00000   0.00000  -0.00001  -0.00001   2.04386
   A17        2.05569   0.00000   0.00000   0.00000   0.00000   2.05569
   A18        2.05382   0.00000   0.00000  -0.00001  -0.00001   2.05382
   A19        2.17367   0.00000   0.00000   0.00000   0.00000   2.17368
   A20        2.83835   0.00005   0.00000   0.00118   0.00118   2.83953
    D1        0.00002   0.00000   0.00000  -0.00002  -0.00002   0.00000
    D2       -3.14158   0.00000   0.00000  -0.00002  -0.00002   3.14159
    D3       -0.00002   0.00000   0.00000   0.00003   0.00003   0.00001
    D4        3.14159   0.00000   0.00000   0.00001   0.00001   3.14159
    D5        3.14157   0.00000   0.00000   0.00003   0.00003  -3.14159
    D6        0.00000   0.00000   0.00000   0.00001   0.00001   0.00000
    D7       -0.00002   0.00000   0.00000   0.00002   0.00002   0.00000
    D8        3.14158   0.00000   0.00000   0.00000   0.00000   3.14159
    D9        0.00001   0.00000   0.00000  -0.00002  -0.00002   0.00000
   D10       -3.14158   0.00000   0.00000  -0.00001  -0.00001   3.14159
   D11       -3.14159   0.00000   0.00000   0.00000   0.00000  -3.14159
   D12        0.00000   0.00000   0.00000   0.00001   0.00001   0.00001
   D13       -0.00020   0.00000   0.00000   0.00025   0.00025   0.00005
   D14        3.14140   0.00000   0.00000   0.00024   0.00024  -3.14155
   D15       -0.00001   0.00000   0.00000   0.00002   0.00002   0.00000
   D16        3.14158   0.00000   0.00000   0.00001   0.00001  -3.14159
   D17        3.14159   0.00000   0.00000   0.00001   0.00001  -3.14159
   D18        0.00000   0.00000   0.00000   0.00001   0.00001   0.00000
   D19        0.00002   0.00000   0.00000  -0.00002  -0.00002  -0.00001
   D20       -3.14159   0.00000   0.00000   0.00000   0.00000   3.14159
   D21       -3.14158   0.00000   0.00000  -0.00002  -0.00002   3.14158
   D22        0.00000   0.00000   0.00000   0.00000   0.00000   0.00000
   D23       -0.00032   0.00000   0.00000   0.00047   0.00047   0.00015
   D24        3.14127   0.00000   0.00000   0.00048   0.00048  -3.14144
   D25        3.14129   0.00000   0.00000   0.00045   0.00045  -3.14145
   D26       -0.00031   0.00000   0.00000   0.00046   0.00046   0.00014
         Item               Value     Threshold  Converged?
 Maximum Force            0.000068     0.000450     YES
 RMS     Force            0.000012     0.000300     YES
 Maximum Displacement     0.001864     0.001800     NO 
 RMS     Displacement     0.000365     0.001200     YES
 Predicted change in Energy=-2.588321D-08
 GradGradGradGradGradGradGradGradGradGradGradGradGradGradGradGradGradGrad

                          Input orientation:                          
 ---------------------------------------------------------------------
 Center     Atomic      Atomic             Coordinates (Angstroms)
 Number     Number       Type             X           Y           Z
 ---------------------------------------------------------------------
      1          6           0       -1.988709   -0.183521   -0.648345
      2          6           0       -0.570483   -0.185716   -0.758257
      3          6           0       -0.047421    0.904115   -0.178508
      4          6           0       -0.582983    2.008511    0.490637
      5          6           0       -1.967920    1.970448    0.575100
      6          6           0       -2.637576    0.869649    0.000349
      7          1           0       -2.593429   -0.990632   -1.061050
      8          1           0        0.010760    2.821853    0.907720
      9          1           0       -2.534727    2.756381    1.065511
     10          7           0       -4.121895    0.850118    0.102967
     11          8           0       -4.716505   -0.100908   -0.392175
     12          8           0       -4.666857    1.789671    0.678892
     13          7           0        1.542238    0.931418   -0.284770
     14          7           0        2.595036    0.662002   -0.518673
 ---------------------------------------------------------------------
                    Distance matrix (angstroms):
                    1          2          3          4          5
     1  C    0.000000
     2  C    1.422480   0.000000
     3  C    2.274269   1.340685   0.000000
     4  C    2.842244   2.524782   1.397953   0.000000
     5  C    2.477262   2.894772   2.322349   1.388032   0.000000
     6  C    1.396782   2.441751   2.596552   2.399738   1.410863
     7  H    1.089697   2.198155   3.294102   3.929947   3.440384
     8  H    3.930838   3.486946   2.204766   1.089960   2.179610
     9  H    3.446515   3.979990   3.341432   2.167740   1.086033
    10  N    2.486637   3.798313   4.084542   3.743803   2.473390
    11  O    2.741043   4.163016   4.780802   4.723877   3.575032
    12  O    3.581553   4.769468   4.781060   4.094064   2.706976
    13  N    3.720600   2.436344   1.593440   2.505583   3.760341
    14  N    4.662879   3.285809   2.675240   3.596053   4.871235
                    6          7          8          9         10
     6  C    0.000000
     7  H    2.142233   0.000000
     8  H    3.412932   5.019253   0.000000
     9  H    2.169080   4.308807   2.551214   0.000000
    10  N    1.487990   2.660734   4.649108   2.660720   0.000000
    11  O    2.327660   2.397176   5.707827   3.879318   1.226041
    12  O    2.329129   3.880281   4.795609   2.372758   1.229403
    13  N    4.189983   4.626082   2.709465   4.666412   5.677971
    14  N    5.262388   5.472252   3.657599   5.762858   6.748258
                   11         12         13         14
    11  O    0.000000
    12  O    2.173462   0.000000
    13  N    6.344218   6.341775   0.000000
    14  N    7.352323   7.445864   1.111611   0.000000
 Stoichiometry    C6H3N3O2
 Framework group  C1[X(C6H3N3O2)]
 Deg. of freedom    36
 Full point group                 C1      NOp   1
 Largest Abelian subgroup         C1      NOp   1
 Largest concise Abelian subgroup C1      NOp   1
                         Standard orientation:                         
 ---------------------------------------------------------------------
 Center     Atomic      Atomic             Coordinates (Angstroms)
 Number     Number       Type             X           Y           Z
 ---------------------------------------------------------------------
      1          6           0       -0.270108   -1.232918   -0.000049
      2          6           0        1.152370   -1.230904   -0.000049
      3          6           0        1.625616    0.023478    0.000000
      4          6           0        1.036454    1.291215    0.000050
      5          6           0       -0.350742    1.243032    0.000047
      6          6           0       -0.970494   -0.024423    0.000002
      7          1           0       -0.838570   -2.162590   -0.000089
      8          1           0        1.593613    2.228011    0.000086
      9          1           0       -0.956237    2.144610    0.000078
     10          7           0       -2.458236   -0.051621    0.000000
     11          8           0       -3.009792   -1.146593    0.000115
     12          8           0       -3.049045    1.026514   -0.000120
     13          7           0        3.218639    0.059950    0.000008
     14          7           0        4.287212   -0.246369   -0.000015
 ---------------------------------------------------------------------
 Rotational constants (GHZ):      3.9449039      0.5882956      0.5119496
 Standard basis: Aug-CC-pVDZ (5D, 7F)
 There are   280 symmetry adapted basis functions of A   symmetry.
 Integral buffers will be    131072 words long.
 Raffenetti 2 integral format.
 Two-electron integral symmetry is turned on.
   280 basis functions,   506 primitive gaussians,   302 cartesian basis functions
    38 alpha electrons       38 beta electrons
       nuclear repulsion energy       527.7234158153 Hartrees.
 NAtoms=   14 NActive=   14 NUniq=   14 SFac= 1.00D+00 NAtFMM=   50 NAOKFM=F Big=F
 One-electron integrals computed using PRISM.
 NBasis=   280 RedAO= T  NBF=   280
 NBsUse=   280 1.00D-06 NBFU=   280
 Initial guess read from the read-write file.
 B after Tr=     0.000000    0.000000    0.000000
         Rot=    1.000000    0.000000    0.000000    0.000000 Ang=   0.00 deg.
 Initial guess orbital symmetries:
       Occupied  (A) (A) (A) (A) (A) (A) (A) (A) (A) (A) (A) (A)
                 (A) (A) (A) (A) (A) (A) (A) (A) (A) (A) (A) (A)
                 (A) (A) (A) (A) (A) (A) (A) (A) (A) (A) (A) (A)
                 (A) (A)
       Virtual   (A) (A) (A) (A) (A) (A) (A) (A) (A) (A) (A) (A)
                 (A) (A) (A) (A) (A) (A) (A) (A) (A) (A) (A) (A)
                 (A) (A) (A) (A) (A) (A) (A) (A) (A) (A) (A) (A)
                 (A) (A) (A) (A) (A) (A) (A) (A) (A) (A) (A) (A)
                 (A) (A) (A) (A) (A) (A) (A) (A) (A) (A) (A) (A)
                 (A) (A) (A) (A) (A) (A) (A) (A) (A) (A) (A) (A)
                 (A) (A) (A) (A) (A) (A) (A) (A) (A) (A) (A) (A)
                 (A) (A) (A) (A) (A) (A) (A) (A) (A) (A) (A) (A)
                 (A) (A) (A) (A) (A) (A) (A) (A) (A) (A) (A) (A)
                 (A) (A) (A) (A) (A) (A) (A) (A) (A) (A) (A) (A)
                 (A) (A) (A) (A) (A) (A) (A) (A) (A) (A) (A) (A)
                 (A) (A) (A) (A) (A) (A) (A) (A) (A) (A) (A) (A)
                 (A) (A) (A) (A) (A) (A) (A) (A) (A) (A) (A) (A)
                 (A) (A) (A) (A) (A) (A) (A) (A) (A) (A) (A) (A)
                 (A) (A) (A) (A) (A) (A) (A) (A) (A) (A) (A) (A)
                 (A) (A) (A) (A) (A) (A) (A) (A) (A) (A) (A) (A)
                 (A) (A) (A) (A) (A) (A) (A) (A) (A) (A) (A) (A)
                 (A) (A) (A) (A) (A) (A) (A) (A) (A) (A) (A) (A)
                 (A) (A) (A) (A) (A) (A) (A) (A) (A) (A) (A) (A)
                 (A) (A) (A) (A) (A) (A) (A) (A) (A) (A) (A) (A)
                 (A) (A)
 Requested convergence on RMS density matrix=1.00D-08 within 128 cycles.
 Requested convergence on MAX density matrix=1.00D-06.
 Requested convergence on             energy=1.00D-06.
 No special actions if energy rises.
 EnCoef did     2 forward-backward iterations
 EnCoef did     5 forward-backward iterations
 EnCoef did     2 forward-backward iterations
 Restarting incremental Fock formation.
 SCF Done:  E(RB3LYP) =  -544.973410486     A.U. after   23 cycles
             Convg  =    0.4540D-08             -V/T =  2.0061
 Calling FoFJK, ICntrl=      2127 FMM=F ISym2X=0 I1Cent= 0 IOpClX= 0 NMat=1 NMatS=1 NMatT=0.
 ***** Axes restored to original set *****
 -------------------------------------------------------------------
 Center     Atomic                   Forces (Hartrees/Bohr)
 Number     Number              X              Y              Z
 -------------------------------------------------------------------
      1        6          -0.000002675    0.000000725    0.000000674
      2        6          -0.000001377   -0.000002699   -0.000001369
      3        6           0.000000139   -0.000001273   -0.000000653
      4        6           0.000001512   -0.000001355   -0.000000887
      5        6           0.000002281    0.000000844    0.000000154
      6        6          -0.000000173    0.000001566    0.000000863
      7        1          -0.000004186    0.000001436    0.000001133
      8        1           0.000003766   -0.000002499   -0.000001704
      9        1           0.000003793    0.000001654    0.000000664
     10        7          -0.000000157    0.000004093    0.000002502
     11        8          -0.000002055    0.000004984    0.000002812
     12        8           0.000001955    0.000005047    0.000002790
     13        7          -0.000000377   -0.000005055   -0.000003010
     14        7          -0.000002448   -0.000007468   -0.000003971
 -------------------------------------------------------------------
 Cartesian Forces:  Max     0.000007468 RMS     0.000002701

 GradGradGradGradGradGradGradGradGradGradGradGradGradGradGradGradGradGrad
 Berny optimization.
 Internal  Forces:  Max     0.000002516 RMS     0.000000569
 Search for a saddle point.
 Step number   3 out of a maximum of   70
 All quantities printed in internal units (Hartrees-Bohrs-Radians)
 Swaping is turned off.
 Update second derivatives using D2CorX and points    1    2    3
 ITU=  0  0  0
     Eigenvalues ---   -0.06615   0.00025   0.00115   0.01075   0.01780
     Eigenvalues ---    0.01790   0.02119   0.02164   0.02899   0.03132
     Eigenvalues ---    0.03865   0.06972   0.10271   0.11014   0.11172
     Eigenvalues ---    0.11850   0.14649   0.16619   0.17091   0.20555
     Eigenvalues ---    0.22379   0.23906   0.28583   0.33264   0.35893
     Eigenvalues ---    0.36056   0.37596   0.37871   0.40922   0.43807
     Eigenvalues ---    0.45731   0.50029   0.53557   0.58269   0.77534
     Eigenvalues ---    1.43492
 Eigenvectors required to have negative eigenvalues:
                          R6        A20       R4        A7        R5
   1                    0.87692  -0.36352  -0.21023  -0.12473  -0.07987
                          A1        A5        A8        A4        A6
   1                   -0.07598   0.07440  -0.06815   0.06388   0.05033
 RFO step:  Lambda0=9.832787362D-12 Lambda= 0.00000000D+00.
 Linear search not attempted -- option 19 set.
 Iteration  1 RMS(Cart)=  0.00012644 RMS(Int)=  0.00000002
 Iteration  2 RMS(Cart)=  0.00000002 RMS(Int)=  0.00000000
 Variable       Old X    -DE/DX   Delta X   Delta X   Delta X     New X
                                 (Linear)    (Quad)   (Total)
    R1        2.68810   0.00000   0.00000   0.00000   0.00000   2.68810
    R2        2.63954   0.00000   0.00000   0.00000   0.00000   2.63954
    R3        2.05923   0.00000   0.00000   0.00000   0.00000   2.05923
    R4        2.53353   0.00000   0.00000   0.00000   0.00000   2.53353
    R5        2.64175   0.00000   0.00000   0.00000   0.00000   2.64175
    R6        3.01117   0.00000   0.00000   0.00000   0.00000   3.01116
    R7        2.62300   0.00000   0.00000   0.00000   0.00000   2.62300
    R8        2.05973   0.00000   0.00000   0.00000   0.00000   2.05973
    R9        2.66615   0.00000   0.00000   0.00000   0.00000   2.66615
   R10        2.05230   0.00000   0.00000   0.00000   0.00000   2.05230
   R11        2.81189   0.00000   0.00000   0.00000   0.00000   2.81189
   R12        2.31688   0.00000   0.00000   0.00000   0.00000   2.31688
   R13        2.32323   0.00000   0.00000   0.00000   0.00000   2.32323
   R14        2.10064   0.00000   0.00000   0.00000   0.00000   2.10064
    A1        2.09463   0.00000   0.00000   0.00000   0.00000   2.09463
    A2        2.12102   0.00000   0.00000   0.00000   0.00000   2.12102
    A3        2.06754   0.00000   0.00000   0.00000   0.00000   2.06754
    A4        1.93297   0.00000   0.00000   0.00000   0.00000   1.93298
    A5        2.34579   0.00000   0.00000   0.00000   0.00000   2.34579
    A6        1.95445   0.00000   0.00000  -0.00001  -0.00001   1.95444
    A7        1.98295   0.00000   0.00000   0.00001   0.00001   1.98295
    A8        1.97112   0.00000   0.00000   0.00000   0.00000   1.97112
    A9        2.17000   0.00000   0.00000   0.00000   0.00000   2.17000
   A10        2.14207   0.00000   0.00000   0.00000   0.00000   2.14207
   A11        2.06030   0.00000   0.00000   0.00000   0.00000   2.06030
   A12        2.12748   0.00000   0.00000   0.00000   0.00000   2.12748
   A13        2.09540   0.00000   0.00000   0.00000   0.00000   2.09540
   A14        2.16156   0.00000   0.00000   0.00000   0.00000   2.16156
   A15        2.07777   0.00000   0.00000   0.00000   0.00000   2.07776
   A16        2.04386   0.00000   0.00000   0.00000   0.00000   2.04386
   A17        2.05569   0.00000   0.00000   0.00000   0.00000   2.05569
   A18        2.05382   0.00000   0.00000   0.00000   0.00000   2.05382
   A19        2.17368   0.00000   0.00000   0.00000   0.00000   2.17368
   A20        2.83953   0.00000   0.00000  -0.00003  -0.00003   2.83950
    D1        0.00000   0.00000   0.00000   0.00001   0.00001   0.00001
    D2        3.14159   0.00000   0.00000   0.00001   0.00001  -3.14158
    D3        0.00001   0.00000   0.00000  -0.00002  -0.00002  -0.00001
    D4        3.14159   0.00000   0.00000   0.00000   0.00000   3.14159
    D5       -3.14159   0.00000   0.00000  -0.00002  -0.00002   3.14158
    D6        0.00000   0.00000   0.00000   0.00000   0.00000   0.00000
    D7        0.00000   0.00000   0.00000  -0.00001  -0.00001  -0.00001
    D8        3.14159   0.00000   0.00000   0.00001   0.00001  -3.14159
    D9        0.00000   0.00000   0.00000   0.00001   0.00001   0.00001
   D10        3.14159   0.00000   0.00000   0.00000   0.00000  -3.14159
   D11       -3.14159   0.00000   0.00000  -0.00001  -0.00001   3.14159
   D12        0.00001   0.00000   0.00000  -0.00001  -0.00001  -0.00001
   D13        0.00005   0.00000   0.00000  -0.00016  -0.00016  -0.00011
   D14       -3.14155   0.00000   0.00000  -0.00015  -0.00015   3.14149
   D15        0.00000   0.00000   0.00000  -0.00001  -0.00001  -0.00001
   D16       -3.14159   0.00000   0.00000  -0.00001  -0.00001   3.14159
   D17       -3.14159   0.00000   0.00000  -0.00001  -0.00001   3.14159
   D18        0.00000   0.00000   0.00000  -0.00001  -0.00001   0.00000
   D19       -0.00001   0.00000   0.00000   0.00002   0.00002   0.00001
   D20        3.14159   0.00000   0.00000   0.00000   0.00000  -3.14159
   D21        3.14158   0.00000   0.00000   0.00002   0.00002  -3.14158
   D22        0.00000   0.00000   0.00000   0.00000   0.00000   0.00000
   D23        0.00015   0.00000   0.00000  -0.00036  -0.00036  -0.00021
   D24       -3.14144   0.00000   0.00000  -0.00036  -0.00036   3.14138
   D25       -3.14145   0.00000   0.00000  -0.00034  -0.00034   3.14139
   D26        0.00014   0.00000   0.00000  -0.00035  -0.00035  -0.00020
         Item               Value     Threshold  Converged?
 Maximum Force            0.000003     0.000450     YES
 RMS     Force            0.000001     0.000300     YES
 Maximum Displacement     0.000567     0.001800     YES
 RMS     Displacement     0.000126     0.001200     YES
 Predicted change in Energy=-1.376014D-10
 Optimization completed.
    -- Stationary point found.
                           ----------------------------
                           !   Optimized Parameters   !
                           ! (Angstroms and Degrees)  !
 --------------------------                            --------------------------
 ! Name  Definition              Value          Derivative Info.                !
 --------------------------------------------------------------------------------
 ! R1    R(1,2)                  1.4225         -DE/DX =    0.0                 !
 ! R2    R(1,6)                  1.3968         -DE/DX =    0.0                 !
 ! R3    R(1,7)                  1.0897         -DE/DX =    0.0                 !
 ! R4    R(2,3)                  1.3407         -DE/DX =    0.0                 !
 ! R5    R(3,4)                  1.398          -DE/DX =    0.0                 !
 ! R6    R(3,13)                 1.5934         -DE/DX =    0.0                 !
 ! R7    R(4,5)                  1.388          -DE/DX =    0.0                 !
 ! R8    R(4,8)                  1.09           -DE/DX =    0.0                 !
 ! R9    R(5,6)                  1.4109         -DE/DX =    0.0                 !
 ! R10   R(5,9)                  1.086          -DE/DX =    0.0                 !
 ! R11   R(6,10)                 1.488          -DE/DX =    0.0                 !
 ! R12   R(10,11)                1.226          -DE/DX =    0.0                 !
 ! R13   R(10,12)                1.2294         -DE/DX =    0.0                 !
 ! R14   R(13,14)                1.1116         -DE/DX =    0.0                 !
 ! A1    A(2,1,6)              120.0134         -DE/DX =    0.0                 !
 ! A2    A(2,1,7)              121.5254         -DE/DX =    0.0                 !
 ! A3    A(6,1,7)              118.4611         -DE/DX =    0.0                 !
 ! A4    A(1,2,3)              110.7513         -DE/DX =    0.0                 !
 ! A5    A(2,3,4)              134.4039         -DE/DX =    0.0                 !
 ! A6    A(2,3,13)             111.9817         -DE/DX =    0.0                 !
 ! A7    A(4,3,13)             113.6144         -DE/DX =    0.0                 !
 ! A8    A(3,4,5)              112.9366         -DE/DX =    0.0                 !
 ! A9    A(3,4,8)              124.332          -DE/DX =    0.0                 !
 ! A10   A(5,4,8)              122.7314         -DE/DX =    0.0                 !
 ! A11   A(4,5,6)              118.0467         -DE/DX =    0.0                 !
 ! A12   A(4,5,9)              121.8958         -DE/DX =    0.0                 !
 ! A13   A(6,5,9)              120.0575         -DE/DX =    0.0                 !
 ! A14   A(1,6,5)              123.8481         -DE/DX =    0.0                 !
 ! A15   A(1,6,10)             119.0472         -DE/DX =    0.0                 !
 ! A16   A(5,6,10)             117.1048         -DE/DX =    0.0                 !
 ! A17   A(6,10,11)            117.7825         -DE/DX =    0.0                 !
 ! A18   A(6,10,12)            117.675          -DE/DX =    0.0                 !
 ! A19   A(11,10,12)           124.5425         -DE/DX =    0.0                 !
 ! A20   A(3,13,14)            162.6928         -DE/DX =    0.0                 !
 ! D1    D(6,1,2,3)             -0.0002         -DE/DX =    0.0                 !
 ! D2    D(7,1,2,3)           -180.0003         -DE/DX =    0.0                 !
 ! D3    D(2,1,6,5)              0.0003         -DE/DX =    0.0                 !
 ! D4    D(2,1,6,10)           180.0            -DE/DX =    0.0                 !
 ! D5    D(7,1,6,5)            180.0004         -DE/DX =    0.0                 !
 ! D6    D(7,1,6,10)             0.0001         -DE/DX =    0.0                 !
 ! D7    D(1,2,3,4)              0.0001         -DE/DX =    0.0                 !
 ! D8    D(1,2,3,13)          -180.0003         -DE/DX =    0.0                 !
 ! D9    D(2,3,4,5)             -0.0001         -DE/DX =    0.0                 !
 ! D10   D(2,3,4,8)           -180.0            -DE/DX =    0.0                 !
 ! D11   D(13,3,4,5)           180.0002         -DE/DX =    0.0                 !
 ! D12   D(13,3,4,8)             0.0004         -DE/DX =    0.0                 !
 ! D13   D(2,3,13,14)            0.0029         -DE/DX =    0.0                 !
 ! D14   D(4,3,13,14)          180.0026         -DE/DX =    0.0                 !
 ! D15   D(3,4,5,6)              0.0003         -DE/DX =    0.0                 !
 ! D16   D(3,4,5,9)            180.0003         -DE/DX =    0.0                 !
 ! D17   D(8,4,5,6)            180.0001         -DE/DX =    0.0                 !
 ! D18   D(8,4,5,9)              0.0002         -DE/DX =    0.0                 !
 ! D19   D(4,5,6,1)             -0.0004         -DE/DX =    0.0                 !
 ! D20   D(4,5,6,10)          -180.0            -DE/DX =    0.0                 !
 ! D21   D(9,5,6,1)           -180.0004         -DE/DX =    0.0                 !
 ! D22   D(9,5,6,10)            -0.0001         -DE/DX =    0.0                 !
 ! D23   D(1,6,10,11)            0.0085         -DE/DX =    0.0                 !
 ! D24   D(1,6,10,12)          180.0087         -DE/DX =    0.0                 !
 ! D25   D(5,6,10,11)          180.0082         -DE/DX =    0.0                 !
 ! D26   D(5,6,10,12)            0.0083         -DE/DX =    0.0                 !
 --------------------------------------------------------------------------------
 GradGradGradGradGradGradGradGradGradGradGradGradGradGradGradGradGradGrad

                          Input orientation:                          
 ---------------------------------------------------------------------
 Center     Atomic      Atomic             Coordinates (Angstroms)
 Number     Number       Type             X           Y           Z
 ---------------------------------------------------------------------
      1          6           0       -1.988709   -0.183521   -0.648345
      2          6           0       -0.570483   -0.185716   -0.758257
      3          6           0       -0.047421    0.904115   -0.178508
      4          6           0       -0.582983    2.008511    0.490637
      5          6           0       -1.967920    1.970448    0.575100
      6          6           0       -2.637576    0.869649    0.000349
      7          1           0       -2.593429   -0.990632   -1.061050
      8          1           0        0.010760    2.821853    0.907720
      9          1           0       -2.534727    2.756381    1.065511
     10          7           0       -4.121895    0.850118    0.102967
     11          8           0       -4.716505   -0.100908   -0.392175
     12          8           0       -4.666857    1.789671    0.678892
     13          7           0        1.542238    0.931418   -0.284770
     14          7           0        2.595036    0.662002   -0.518673
 ---------------------------------------------------------------------
                    Distance matrix (angstroms):
                    1          2          3          4          5
     1  C    0.000000
     2  C    1.422480   0.000000
[...]
         Item               Value     Threshold  Converged?
 Maximum Force            0.000003     0.000450     YES
 RMS     Force            0.000001     0.000300     YES
 Maximum Displacement     0.000246     0.001800     YES
 RMS     Displacement     0.000055     0.001200     YES
 Predicted change in Energy=-1.002729D-10
 Optimization completed.
    -- Stationary point found.
                           ----------------------------
                           !   Optimized Parameters   !
                           ! (Angstroms and Degrees)  !
 --------------------------                            --------------------------
 ! Name  Definition              Value          Derivative Info.                !
 --------------------------------------------------------------------------------
 ! R1    R(1,2)                  1.4225         -DE/DX =    0.0                 !
 ! R2    R(1,6)                  1.3968         -DE/DX =    0.0                 !
 ! R3    R(1,7)                  1.0897         -DE/DX =    0.0                 !
 ! R4    R(2,3)                  1.3407         -DE/DX =    0.0                 !
 ! R5    R(3,4)                  1.398          -DE/DX =    0.0                 !
 ! R6    R(3,13)                 1.5934         -DE/DX =    0.0                 !
 ! R7    R(4,5)                  1.388          -DE/DX =    0.0                 !
 ! R8    R(4,8)                  1.09           -DE/DX =    0.0                 !
 ! R9    R(5,6)                  1.4109         -DE/DX =    0.0                 !
 ! R10   R(5,9)                  1.086          -DE/DX =    0.0                 !
 ! R11   R(6,10)                 1.488          -DE/DX =    0.0                 !
 ! R12   R(10,11)                1.226          -DE/DX =    0.0                 !
 ! R13   R(10,12)                1.2294         -DE/DX =    0.0                 !
 ! R14   R(13,14)                1.1116         -DE/DX =    0.0                 !
 ! A1    A(2,1,6)              120.0134         -DE/DX =    0.0                 !
 ! A2    A(2,1,7)              121.5254         -DE/DX =    0.0                 !
 ! A3    A(6,1,7)              118.4611         -DE/DX =    0.0                 !
 ! A4    A(1,2,3)              110.7513         -DE/DX =    0.0                 !
 ! A5    A(2,3,4)              134.4039         -DE/DX =    0.0                 !
 ! A6    A(2,3,13)             111.9817         -DE/DX =    0.0                 !
 ! A7    A(4,3,13)             113.6144         -DE/DX =    0.0                 !
 ! A8    A(3,4,5)              112.9366         -DE/DX =    0.0                 !
 ! A9    A(3,4,8)              124.332          -DE/DX =    0.0                 !
 ! A10   A(5,4,8)              122.7314         -DE/DX =    0.0                 !
 ! A11   A(4,5,6)              118.0467         -DE/DX =    0.0                 !
 ! A12   A(4,5,9)              121.8958         -DE/DX =    0.0                 !
 ! A13   A(6,5,9)              120.0575         -DE/DX =    0.0                 !
 ! A14   A(1,6,5)              123.8481         -DE/DX =    0.0                 !
 ! A15   A(1,6,10)             119.0472         -DE/DX =    0.0                 !
 ! A16   A(5,6,10)             117.1048         -DE/DX =    0.0                 !
 ! A17   A(6,10,11)            117.7825         -DE/DX =    0.0                 !
 ! A18   A(6,10,12)            117.675          -DE/DX =    0.0                 !
 ! A19   A(11,10,12)           124.5425         -DE/DX =    0.0                 !
 ! A20   A(3,13,14)            162.6928         -DE/DX =    0.0                 !
 ! D1    D(6,1,2,3)             -0.0002         -DE/DX =    0.0                 !
 ! D2    D(7,1,2,3)           -180.0003         -DE/DX =    0.0                 !
 ! D3    D(2,1,6,5)              0.0003         -DE/DX =    0.0                 !
 ! D4    D(2,1,6,10)           180.0            -DE/DX =    0.0                 !
 ! D5    D(7,1,6,5)            180.0004         -DE/DX =    0.0                 !
 ! D6    D(7,1,6,10)             0.0001         -DE/DX =    0.0                 !
 ! D7    D(1,2,3,4)              0.0001         -DE/DX =    0.0                 !
 ! D8    D(1,2,3,13)          -180.0003         -DE/DX =    0.0                 !
 ! D9    D(2,3,4,5)             -0.0001         -DE/DX =    0.0                 !
 ! D10   D(2,3,4,8)            180.0            -DE/DX =    0.0                 !
 ! D11   D(13,3,4,5)           180.0002         -DE/DX =    0.0                 !
 ! D12   D(13,3,4,8)             0.0004         -DE/DX =    0.0                 !
 ! D13   D(2,3,13,14)            0.0029         -DE/DX =    0.0                 !
 ! D14   D(4,3,13,14)         -179.9974         -DE/DX =    0.0                 !
 ! D15   D(3,4,5,6)              0.0003         -DE/DX =    0.0                 !
 ! D16   D(3,4,5,9)            180.0003         -DE/DX =    0.0                 !
 ! D17   D(8,4,5,6)           -179.9999         -DE/DX =    0.0                 !
 ! D18   D(8,4,5,9)              0.0002         -DE/DX =    0.0                 !
 ! D19   D(4,5,6,1)             -0.0004         -DE/DX =    0.0                 !
 ! D20   D(4,5,6,10)           180.0            -DE/DX =    0.0                 !
 ! D21   D(9,5,6,1)           -180.0004         -DE/DX =    0.0                 !
 ! D22   D(9,5,6,10)            -0.0001         -DE/DX =    0.0                 !
 ! D23   D(1,6,10,11)            0.0085         -DE/DX =    0.0                 !
 ! D24   D(1,6,10,12)          180.0087         -DE/DX =    0.0                 !
 ! D25   D(5,6,10,11)          180.0082         -DE/DX =    0.0                 !
 ! D26   D(5,6,10,12)            0.0083         -DE/DX =    0.0                 !
 --------------------------------------------------------------------------------
 GradGradGradGradGradGradGradGradGradGradGradGradGradGradGradGradGradGrad

 1\1\GINC-LC06-1-7\Freq\RB3LYP\Aug-CC-pVDZ\C6H3N3O2\UBUNTU\19-Dec-2018\
 0\\#N Geom=AllCheck Guess=TCheck SCRF=Check GenChk RB3LYP/Aug-CC-pVDZ 
 Freq\\4-NO2-C6H3\\0,1\C,-1.9887089478,-0.1835208245,-0.6483451836\C,-0
 .5704832994,-0.1857158543,-0.7582566272\C,-0.0474206873,0.9041153792,-
 0.1785077908\C,-0.5829825929,2.0085113002,0.4906367991\C,-1.967919549,
 1.9704475382,0.5750996658\C,-2.6375759479,0.8696490963,0.0003491441\H,
 -2.5934291928,-0.9906320238,-1.0610495271\H,0.0107603215,2.8218525401,
 0.9077203658\H,-2.5347274724,2.7563814808,1.0655112652\N,-4.1218950991
 ,0.8501182592,0.1029672044\O,-4.7165046839,-0.1009081164,-0.3921748842
 \O,-4.6668570042,1.7896706858,0.6788921239\N,1.5422382054,0.9314182333
 ,-0.2847695207\N,2.5950359499,0.6620023059,-0.5186730346\\Version=EM64
 L-G09RevB.01\State=1-A\HF=-544.9734105\RMSD=5.365e-09\RMSF=2.699e-06\Z
 eroPoint=0.0845664\Thermal=0.0935037\Dipole=2.206895,1.0571222,0.43213
 67\DipoleDeriv=0.2030822,0.2715385,0.136942,0.1796854,0.1579455,0.0904
 845,0.0847241,0.0834311,0.0156231,-0.417245,-0.1354809,-0.0696505,-0.3
 829303,-0.8268191,-0.2585697,-0.2103856,-0.2775221,-0.4623195,0.237853
 7,0.2654053,0.1398613,0.2626817,0.584248,0.2591012,0.1383091,0.2589181
 ,0.2299344,0.0967945,0.1123318,0.0519423,-0.1212654,0.0410683,0.066305
 ,-0.0809434,0.0484045,-0.0254394,-0.1901303,-0.1456641,-0.0762119,0.04
 53681,-0.1188842,-0.0121959,0.0324252,0.0024092,-0.1046333,-0.2794406,
 0.0186577,0.0399287,0.0566857,0.1560605,0.0257212,0.0615831,0.0286138,
 0.1147916,0.0531737,-0.0224495,-0.0093717,-0.0619959,0.0678716,-0.0121
 254,-0.0318924,-0.0151421,0.0913602,-0.0004602,-0.0768535,-0.0323411,-
 0.0271483,0.0202537,-0.0705568,-0.0040659,-0.0667496,0.1102962,0.12326
 09,0.0273909,0.0172396,0.0056389,0.0915395,-0.0307817,0.0048731,-0.032
 4184,0.1260649,1.7637808,0.0156523,-0.1096067,0.090963,1.2045525,0.554
 3057,-0.0667396,0.5601085,0.540827,-0.861314,-0.3187893,-0.1325072,-0.
 2100671,-0.7070348,-0.257746,-0.0707123,-0.2494303,-0.3617486,-0.87168
 66,0.2890642,0.2130189,0.1745709,-0.7210855,-0.2889224,0.1479078,-0.29
 77061,-0.4169929,1.2781742,-0.0374392,-0.1111459,-0.4070644,-0.1766452
 ,-0.1290987,-0.3213844,-0.1574325,0.0402576,-1.1358432,-0.2633642,-0.0
 580977,0.3948778,0.2269291,0.0640789,0.3163014,0.1145161,0.1019786\Pol
 ar=170.0777029,3.5109642,96.6808078,-6.7275721,22.7456013,69.662165\PG
 =C01 [X(C6H3N3O2)]\NImag=1\\0.61380027,0.07750570,0.54721149,0.0076200
 0,0.22683432,0.26636180,-0.28814651,-0.02494900,0.00415989,0.48647894,
 -0.01380960,-0.04644609,0.00231486,0.14981800,0.32857350,0.01049436,0.
 00316763,-0.04765897,0.05270065,0.14001096,0.13780232,-0.02375801,-0.0
 4246500,-0.02312587,-0.11512312,-0.03365247,-0.01301477,0.16787892,-0.
 04068049,-0.01494822,0.00052371,-0.11940923,-0.25473733,-0.11572664,-0
 .02552955,0.57695527,-0.02211138,0.00066008,-0.00831972,-0.06178758,-0
 .12229731,-0.09998757,-0.02019566,0.27674707,0.25273396,-0.04311500,0.
 02708160,0.01849202,0.05083437,0.00537499,0.00049820,-0.08272624,0.032
 55115,0.02079867,0.68154889,0.02237754,-0.01576085,-0.00909420,-0.0226
 3850,-0.01993897,-0.01951781,0.06424909,-0.25635015,-0.12064113,0.0784
 8318,0.57611421,0.01581714,-0.00945510,-0.00937400,-0.01543514,-0.0216
 6346,0.00628906,0.03882738,-0.11821276,-0.12309028,0.00203096,0.250279
 09,0.26766597,0.05805572,-0.01779618,-0.01385335,-0.04101592,-0.020735
 18,-0.00912325,-0.04720558,0.06064123,0.03892711,-0.36123038,-0.035596
 67,0.00249225,0.70435752,0.02077994,-0.03947128,-0.02935394,-0.0226803
 0,-0.00868481,0.00030306,0.00819975,0.02013368,0.00472996,0.01880422,-
 0.10778480,-0.02607547,-0.03922140,0.55845813,0.00808624,-0.02639878,-
 0.00628943,-0.01022794,0.00015529,-0.00529259,0.00910103,0.00071002,0.
 01042046,0.03343117,-0.02190656,-0.07949104,-0.06597546,0.24418612,0.2
 7832229,-0.13821319,0.08358568,0.05325238,-0.02803201,0.01547098,0.011
 94804,-0.01589758,-0.00365538,-0.00157728,-0.03379894,-0.02150380,-0.0
 0914128,-0.14114614,-0.08530342,-0.04275290,0.50386981,0.02939943,-0.2
 3404053,-0.09916232,0.05088048,0.01944211,-0.00026433,0.01754241,-0.03
 514186,-0.01602411,-0.06175977,0.02256617,0.01386049,-0.03473855,-0.22
 285702,-0.08658810,0.01494390,0.58680013,0.02243475,-0.10331263,-0.124
 12570,0.03208574,0.00244763,0.01198805,0.01047948,-0.01440038,-0.01832
 170,-0.03203522,0.01077450,0.01509988,-0.01399547,-0.08271309,-0.11190
 019,-0.01898804,0.25005156,0.28877500,-0.13063041,-0.11747588,-0.06004
 838,-0.01808771,-0.01493223,-0.00700363,-0.00434761,-0.00484952,-0.001
 89382,-0.00102737,0.00047984,0.00022509,-0.00135276,0.00230982,0.00189
 179,0.01072397,0.01057547,0.00578709,0.14698376,-0.11160934,-0.2134125
 0,-0.08875180,0.00105145,0.00532660,0.00218551,0.00058258,0.00347760,-
 0.00200980,0.00026810,0.00032828,0.00110535,0.00320326,-0.00013497,-0.
 00384602,-0.01299710,-0.01399999,-0.01137542,0.12337009,0.21878890,-0.
 05671047,-0.08830242,-0.08820374,0.00208581,0.00341002,0.00312218,0.00
 119624,-0.00159368,0.00593467,0.00010434,0.00108931,-0.00103982,0.0024
 0061,-0.00377758,0.00386350,-0.00762128,-0.01318125,0.00083930,0.06078
 152,0.10104507,0.07731529,-0.00121106,0.00146062,0.00086663,0.00049262
 ,-0.00034929,0.00019088,0.01024663,0.01380085,0.00706443,-0.13929873,-
 0.11513346,-0.05733598,-0.00964705,-0.02300586,-0.01201066,-0.00423969
 ,0.00077586,0.00144906,0.00011651,-0.00004493,-0.00019351,0.14184522,0
 .00096881,0.00036833,0.00055578,0.00335659,-0.00123085,-0.00412842,-0.
 01498473,-0.01239930,-0.00590866,-0.11577774,-0.21025533,-0.09193994,0
 .00192442,0.00490954,0.00016318,0.00053601,0.00332043,-0.00322191,-0.0
 0008347,-0.00051784,0.00089240,0.12492900,0.21568966,0.00058769,0.0005
 1877,-0.00049033,0.00229830,-0.00384448,0.00321382,-0.00930644,-0.0081
 1445,-0.00389423,-0.05770253,-0.09198885,-0.08089764,0.00216810,0.0020
 7336,0.00537692,0.00131242,-0.00324089,0.00697016,-0.00021564,0.000889
 44,-0.00155333,0.06186983,0.10058064,0.07447335,-0.00174239,-0.0035290
 0,-0.00160846,-0.00060748,0.00025931,0.00010500,-0.00296299,-0.0021016
 3,-0.00047982,-0.01008320,0.02151153,0.01335775,-0.13134287,0.11080239
 ,0.07031890,0.01246510,-0.00970112,-0.00617495,0.00068789,-0.00069274,
 -0.00039430,0.00130863,-0.00003346,-0.00049571,0.13766781,-0.00348865,
 -0.00146469,-0.00253278,-0.00043663,0.00009386,0.00074775,-0.00053926,
 0.00208424,-0.00239940,-0.00363435,0.00629491,0.00125354,0.10932187,-0
 .20894091,-0.10670755,0.01342375,-0.01180255,-0.00994913,0.00067150,-0
 .00040992,-0.00067438,0.00045997,-0.00083622,0.00228343,-0.11789915,0.
 21422508,-0.00158643,-0.00252978,0.00214060,-0.00029087,0.00069388,-0.
 00074440,0.00040874,-0.00227857,0.00504792,-0.00094325,-0.00067337,0.0
 0426964,0.06947635,-0.10682133,-0.10211969,0.00697780,-0.00817704,-0.0
 0130243,0.00038200,-0.00056984,0.00033197,-0.00021516,0.00232122,-0.00
 357670,-0.07566475,0.11649694,0.09732339,-0.02895142,0.01491545,0.0107
 9888,0.00054648,-0.00174154,-0.00061250,0.00830399,0.00452955,0.002474
 54,0.00493592,-0.00179714,-0.00073217,-0.03052220,-0.01375151,-0.00563
 769,-0.10345115,-0.00528390,-0.00170881,0.00084665,-0.00275506,-0.0018
 0520,0.00064657,0.00029312,0.00020010,0.00119282,0.00248285,0.00105132
 ,0.62693241,0.02073519,0.01364826,0.00544021,0.00459373,-0.00177215,-0
 .00447958,0.00013485,-0.00301502,-0.00568576,-0.00485830,-0.00356382,-
 0.00660869,-0.02274203,0.00789009,0.00738620,0.00011546,-0.09987704,-0
 .00760593,0.00026628,-0.00357769,-0.00075829,-0.00153617,0.00048928,-0
 .00022019,-0.00061377,-0.00337694,0.00012323,0.02617303,0.76612417,0.0
 1411031,0.00588583,0.00355640,0.00299219,-0.00399436,0.00298501,-0.000
 02752,-0.00602248,0.00354152,-0.00247299,-0.00684384,0.00500853,-0.010
 75316,0.00669650,0.00259894,0.00136238,-0.00719312,-0.09071911,-0.0000
 8809,-0.00052635,-0.00257260,-0.00084017,-0.00036002,0.00094266,-0.000
 70912,-0.00011357,-0.00352061,-0.01590666,0.30561020,0.40005114,-0.004
 03937,-0.00157094,-0.00049978,0.00078655,0.00082964,0.00039707,-0.0015
 9585,-0.00215712,-0.00116604,-0.00236423,-0.00191084,-0.00100642,-0.00
 562909,0.00524416,0.00362996,-0.03499792,-0.04268396,-0.02009317,-0.00
 441595,-0.00062759,-0.00002551,-0.00087407,0.00015862,0.00012759,0.000
 40308,-0.00003083,-0.00001849,-0.24682928,-0.16679200,-0.08166311,0.25
 066576,0.00450006,-0.00574056,-0.00422650,0.00045845,0.00192664,0.0011
 6792,-0.00095749,-0.00082076,0.00006032,-0.00084620,0.00018265,0.00091
 247,-0.00100541,0.00262989,-0.00002785,-0.02907657,-0.00524475,-0.0118
 3845,0.00093146,0.00265418,0.00149168,-0.00014177,-0.00000302,0.000228
 64,0.00136000,0.00104923,0.00027252,-0.16570942,-0.34366483,-0.1400555
 2,0.20245107,0.43382403,0.00295100,-0.00376055,-0.00128127,0.00018646,
 0.00113928,0.00044566,-0.00048335,0.00015270,-0.00067545,-0.00040042,0
 .00099503,-0.00071266,0.00007591,-0.00050717,0.00252044,-0.01235565,-0
 .01079600,0.01430548,0.00086098,0.00161150,0.00075537,-0.00004314,0.00
 020561,-0.00026569,0.00077197,0.00037843,0.00054390,-0.08104793,-0.139
 97370,-0.14836555,0.09798173,0.21565942,0.14232927,-0.00442211,-0.0070
 2883,-0.00350799,-0.00379222,0.00104244,0.00083415,-0.00128596,0.00180
 667,0.00096154,0.00046310,0.00075336,0.00031579,-0.00466706,0.00058823
 ,0.00082012,-0.03114244,0.04125477,0.02745383,0.00031181,0.00019004,0.
 00004151,-0.00016405,-0.00003217,-0.00001489,-0.00488635,0.00074200,0.
 00078443,-0.22781919,0.14383418,0.09358611,0.04784490,-0.01280422,-0.0
 0893835,0.22902553,-0.00033859,0.00242058,0.00028348,0.00199661,0.0006
 7348,0.00059731,-0.00053747,-0.00034322,0.00107053,0.00203898,0.000745
 91,0.00084154,-0.00694758,-0.00459644,-0.00303971,0.02535817,-0.003867
 47,-0.01610676,-0.00098961,0.00098297,0.00094997,0.00025964,-0.0000450
 9,0.00002234,-0.00043970,0.00238985,0.00147856,0.14277374,-0.32762900,
 -0.15533348,0.00703886,-0.08740055,-0.06512428,-0.17023172,0.41578600,
 0.00029717,0.00079520,0.00239734,0.00137528,0.00067105,-0.00037101,-0.
 00037117,0.00089101,-0.00161790,0.00104621,0.00094033,-0.00055385,-0.0
 0346362,-0.00361647,-0.00010731,0.01841486,-0.01732392,0.00978393,-0.0
 0062899,0.00085878,-0.00001607,0.00015106,0.00004449,-0.00010535,0.000
 11251,0.00138815,0.00062954,0.09298353,-0.15541472,-0.16914054,0.00234
 380,-0.06360447,-0.01014338,-0.11233516,0.23464137,0.16802990,-0.00847
 903,-0.00192007,0.00109087,-0.05425635,-0.07597879,-0.04070937,0.15807
 113,0.07281144,0.02821984,-0.06899019,0.01559509,0.01324425,0.01585586
 ,0.01873060,0.00996084,0.00612419,-0.01167762,-0.00718738,-0.00033330,
 0.00055889,0.00052915,0.00160748,-0.00282038,-0.00175794,-0.00222709,-
 0.00102219,-0.00026869,-0.00940384,-0.00025684,-0.00007041,0.00248758,
 0.00110028,0.00050055,0.00281991,-0.00053080,-0.00035779,1.20542501,-0
 .00735228,0.01744000,-0.00090428,-0.01799592,-0.04648753,-0.01277198,0
 .03327454,-0.01932849,-0.00552381,0.02436065,0.00946916,0.01028200,0.0
 0436364,-0.00097063,-0.00477226,-0.00185585,-0.00857499,-0.00416604,-0
 .00003776,0.00048189,-0.00110352,-0.00258160,0.00142890,0.00123451,0.0
 0135754,0.00098750,-0.00059256,0.00033464,-0.00208690,0.00358140,-0.00
 020400,0.00092303,0.00005294,-0.00087960,0.00154365,-0.00024609,-0.336
 00346,0.14118795,-0.00199909,-0.00131899,0.01942302,-0.00773143,-0.008
 33178,-0.02575309,0.00573298,-0.00855118,-0.01940095,0.01822976,0.0109
 5338,-0.00705840,0.00179020,-0.00587331,0.00335515,-0.00159983,-0.0034
 1496,-0.00281840,0.00019018,-0.00114903,0.00175881,-0.00162155,0.00125
 315,0.00044297,0.00108414,-0.00040984,0.00153008,0.00026420,0.00362578
 ,-0.00638600,-0.00024080,-0.00004614,0.00084928,-0.00055621,-0.0002724
 2,0.00198180,-0.28057670,0.08456216,0.10736931,0.00085250,0.01218586,0
 .00636314,0.00992236,-0.01159626,-0.00670484,-0.04959773,0.01224204,0.
 01076545,0.00485200,-0.00486921,-0.00265964,-0.00451005,-0.00149661,-0
 .00063537,-0.00226400,0.00047259,0.00049309,0.00052454,-0.00049764,-0.
 00038893,-0.00082900,0.00156538,0.00092913,0.00012704,-0.00005088,-0.0
 0009299,0.00357225,0.00094639,0.00048023,-0.00144210,-0.00026024,-0.00
 005975,-0.00228586,0.00054945,0.00043229,-1.24870136,0.30321945,0.2670
 3414,1.28977942,0.00101227,-0.00980392,-0.00192654,-0.00404573,0.02326
 155,0.00870862,-0.00531725,-0.00556645,-0.00277801,-0.00208650,-0.0020
 4737,-0.00457905,-0.00067141,-0.00058046,0.00068602,0.00095816,0.00327
 735,0.00141606,-0.00023599,0.00001252,0.00051266,0.00110715,-0.0009184
 9,-0.00042228,-0.00028021,-0.00029343,0.00025614,-0.00046379,0.0004115
 7,-0.00133120,0.00025494,-0.00031517,-0.00003323,0.00076484,-0.0006606
 9,-0.00002470,0.32141383,-0.09601354,-0.07102681,-0.31241032,0.0892365
 5,0.00000872,-0.00278359,-0.00813600,-0.00241136,0.00928842,0.01396153
 ,0.00077892,-0.00412436,-0.00237074,-0.00107693,-0.00436588,0.00388461
 ,-0.00016622,0.00074934,-0.00125746,0.00076837,0.00145399,0.00142573,-
 0.00024011,0.00053260,-0.00053553,0.00066827,-0.00045753,-0.00063658,-
 0.00022317,0.00023842,-0.00055321,-0.00032161,-0.00143878,0.00202021,0
 .00023317,0.00000596,-0.00030542,0.00055513,-0.00000846,-0.00076712,0.
 27738278,-0.06963247,-0.07529359,-0.27595595,0.07054233,0.06856359\\0.
 00000265,-0.00000071,-0.00000067,0.00000137,0.00000267,0.00000135,-0.0
 0000014,0.00000136,0.00000070,-0.00000150,0.00000132,0.00000087,-0.000
 00227,-0.00000089,-0.00000018,0.00000019,-0.00000156,-0.00000086,0.000
 00419,-0.00000144,-0.00000113,-0.00000377,0.00000249,0.00000170,-0.000
 00380,-0.00000165,-0.00000066,0.00000011,-0.00000409,-0.00000249,0.000
 00206,-0.00000498,-0.00000281,-0.00000195,-0.00000505,-0.00000279,0.00
 000046,0.00000504,0.00000300,0.00000240,0.00000748,0.00000398\\\@


 KNIGHT- SIRE, I'VE JUST RETURNED FROM THE FRONT
 KING-   HOW GOES THE BATTLE                    
 KNIGHT- THE SITUATION IS QUITE FLUID           
 KING-   WHAT DOES *THAT* MEAN                  
 KNIGHT- WE'RE UP THE CREEK                     
                THE WIZARD OF ID                
 Job cpu time:  0 days  1 hours  6 minutes 41.1 seconds.
 File lengths (MBytes):  RWF=    119 Int=      0 D2E=      0 Chk=      6 Scr=      1
 Normal termination of Gaussian 09 at Wed Dec 19 07:13:23 2018.
