 Entering Gaussian System, Link 0=/home/ubuntu/g16/g16
 Input=s-C6H4N2_UB3LYP-aug-cc-pVDZ-Opt.gjf
 Output=s-C6H4N2_UB3LYP-aug-cc-pVDZ-Opt.log
 Initial command:
 /home/ubuntu/g16/l1.exe "/home/ubuntu/g16/Gau-3092.inp" -scrdir="/home/ubuntu/g16/"
 Entering Link 1 = /home/ubuntu/g16/l1.exe PID=      3094.
  
 Copyright (c) 1988,1990,1992,1993,1995,1998,2003,2009,2016,
            Gaussian, Inc.  All Rights Reserved.
  
 This is part of the Gaussian(R) 16 program.  It is based on
 the Gaussian(R) 09 system (copyright 2009, Gaussian, Inc.),
 the Gaussian(R) 03 system (copyright 2003, Gaussian, Inc.),
 the Gaussian(R) 98 system (copyright 1998, Gaussian, Inc.),
 the Gaussian(R) 94 system (copyright 1995, Gaussian, Inc.),
 the Gaussian 92(TM) system (copyright 1992, Gaussian, Inc.),
 the Gaussian 90(TM) system (copyright 1990, Gaussian, Inc.),
 the Gaussian 88(TM) system (copyright 1988, Gaussian, Inc.),
 the Gaussian 86(TM) system (copyright 1986, Carnegie Mellon
 University), and the Gaussian 82(TM) system (copyright 1983,
 Carnegie Mellon University). Gaussian is a federally registered
 trademark of Gaussian, Inc.
  
 This software contains proprietary and confidential information,
 including trade secrets, belonging to Gaussian, Inc.
  
 This software is provided under written license and may be
 used, copied, transmitted, or stored only in accord with that
 written license.
  
 The following legend is applicable only to US Government
 contracts under FAR:
  
                    RESTRICTED RIGHTS LEGEND
  
 Use, reproduction and disclosure by the US Government is
 subject to restrictions as set forth in subparagraphs (a)
 and (c) of the Commercial Computer Software - Restricted
 Rights clause in FAR 52.227-19.
  
 Gaussian, Inc.
 340 Quinnipiac St., Bldg. 40, Wallingford CT 06492
  
  
 ---------------------------------------------------------------
 Warning -- This program may not be used in any manner that
 competes with the business of Gaussian, Inc. or will provide
 assistance to any competitor of Gaussian, Inc.  The licensee
 of this program is prohibited from giving any competitor of
 Gaussian, Inc. access to this program.  By using this program,
 the user acknowledges that Gaussian, Inc. is engaged in the
 business of creating and licensing software in the field of
 computational chemistry and represents and warrants to the
 licensee that it is not a competitor of Gaussian, Inc. and that
 it will not use this program in any manner prohibited above.
 ---------------------------------------------------------------
  

 Cite this work as:
 Gaussian 16, Revision A.03,
 M. J. Frisch, G. W. Trucks, H. B. Schlegel, G. E. Scuseria, 
 M. A. Robb, J. R. Cheeseman, G. Scalmani, V. Barone, 
 G. A. Petersson, H. Nakatsuji, X. Li, M. Caricato, A. V. Marenich, 
 J. Bloino, B. G. Janesko, R. Gomperts, B. Mennucci, H. P. Hratchian, 
 J. V. Ortiz, A. F. Izmaylov, J. L. Sonnenberg, D. Williams-Young, 
 F. Ding, F. Lipparini, F. Egidi, J. Goings, B. Peng, A. Petrone, 
 T. Henderson, D. Ranasinghe, V. G. Zakrzewski, J. Gao, N. Rega, 
 G. Zheng, W. Liang, M. Hada, M. Ehara, K. Toyota, R. Fukuda, 
 J. Hasegawa, M. Ishida, T. Nakajima, Y. Honda, O. Kitao, H. Nakai, 
 T. Vreven, K. Throssell, J. A. Montgomery, Jr., J. E. Peralta, 
 F. Ogliaro, M. J. Bearpark, J. J. Heyd, E. N. Brothers, K. N. Kudin, 
 V. N. Staroverov, T. A. Keith, R. Kobayashi, J. Normand, 
 K. Raghavachari, A. P. Rendell, J. C. Burant, S. S. Iyengar, 
 J. Tomasi, M. Cossi, J. M. Millam, M. Klene, C. Adamo, R. Cammi, 
 J. W. Ochterski, R. L. Martin, K. Morokuma, O. Farkas, 
 J. B. Foresman, and D. J. Fox, Gaussian, Inc., Wallingford CT, 2016.
 
 ******************************************
 Gaussian 16:  ES64L-G16RevA.03 25-Dec-2016
                 5-Nov-2016 
 ******************************************
 %chk=s-C6H4N2_UB3LYP-aug-cc-pVDZ-Opt.chk
 %mem=500MW
 %nproc=7
 Will use up to    7 processors via shared memory.
 ----------------------------------------------------------------------
 #p opt=(maxcycles=777) freq ub3lyp/aug-cc-pVDZ pop=(Bonding,AllOrbital
 s,mk,no,nboread)
 ----------------------------------------------------------------------
 1/6=777,18=20,19=15,26=3,38=1/1,3;
 2/9=110,12=2,17=6,18=5,40=1/2;
 3/5=16,7=10,11=2,25=1,30=1,71=1,74=-5,116=2/1,2,3;
 4//1;
 5/5=2,38=5/2;
 6/7=2,8=2,9=2,10=2,15=8,20=1,22=-1,27=20,28=1,31=1,40=2,96=-1/1,2,7;
 7//1,2,3,16;
 1/6=777,18=20,19=15,26=3/3(2);
 2/9=110/2;
 99//99;
 2/9=110/2;
 3/5=16,7=10,11=2,25=1,30=1,71=1,74=-5,116=2/1,2,3;
 4/5=5,16=3,69=1/1;
 5/5=2,38=5/2;
 7//1,2,3,16;
 1/6=777,18=20,19=15,26=3/3(-5);
 2/9=110/2;
 6/7=2,8=2,9=2,10=2,15=8,19=2,20=1,22=-1,27=20,28=1,31=1,40=2,96=-1/1,2,7;
 99/9=1/99;
 Leave Link    1 at Sat Nov  5 22:52:49 2016, MaxMem=   524288000 cpu:               0.3 elap:               0.0
 (Enter /home/ubuntu/g16/l101.exe)
 ---------------------------
 s-C6H4N2_UB3LYP-aug-cc-pVDZ
 ---------------------------
 Symbolic Z-matrix:
 Charge =  0 Multiplicity = 1
 C                    -1.20398  -0.39192  -0.05918 
 N                    -2.59183  -0.53088  -0.10485 
 N                    -3.70799  -0.57526  -0.14082 
 C                    -0.79464   0.95502  -0.04478 
 C                     0.63093   1.01066   0.00356 
 C                     1.45263  -0.11483   0.03177 
 C                     0.92017  -1.4299    0.0124 
 C                    -0.44767  -1.59805  -0.03455 
 H                     1.11397   1.99235   0.0203 
 H                     2.5388    0.00786   0.0699 
 H                     1.58214  -2.29499   0.0348 
 H                    -0.91727  -2.58232  -0.05176 
 
 ITRead=  0  0  0  0  0  0  0  0  0  0  0  0
 MicOpt= -1 -1 -1 -1 -1 -1 -1 -1 -1 -1 -1 -1
 NAtoms=     12 NQM=       12 NQMF=       0 NMMI=      0 NMMIF=      0
                NMic=       0 NMicF=      0.
                    Isotopes and Nuclear Properties:
 (Nuclear quadrupole moments (NQMom) in fm**2, nuclear magnetic moments (NMagM)
  in nuclear magnetons)

  Atom         1           2           3           4           5           6           7           8           9          10
 IAtWgt=          12          14          14          12          12          12          12          12           1           1
 AtmWgt=  12.0000000  14.0030740  14.0030740  12.0000000  12.0000000  12.0000000  12.0000000  12.0000000   1.0078250   1.0078250
 NucSpn=           0           2           2           0           0           0           0           0           1           1
 AtZEff=  -0.0000000  -0.0000000  -0.0000000  -0.0000000  -0.0000000  -0.0000000  -0.0000000  -0.0000000  -0.0000000  -0.0000000
 NQMom=    0.0000000   2.0440000   2.0440000   0.0000000   0.0000000   0.0000000   0.0000000   0.0000000   0.0000000   0.0000000
 NMagM=    0.0000000   0.4037610   0.4037610   0.0000000   0.0000000   0.0000000   0.0000000   0.0000000   2.7928460   2.7928460
 AtZNuc=   6.0000000   7.0000000   7.0000000   6.0000000   6.0000000   6.0000000   6.0000000   6.0000000   1.0000000   1.0000000

  Atom        11          12
 IAtWgt=           1           1
 AtmWgt=   1.0078250   1.0078250
 NucSpn=           1           1
 AtZEff=  -0.0000000  -0.0000000
 NQMom=    0.0000000   0.0000000
 NMagM=    2.7928460   2.7928460
 AtZNuc=   1.0000000   1.0000000
 Leave Link  101 at Sat Nov  5 22:52:49 2016, MaxMem=   524288000 cpu:               1.3 elap:               0.2
 (Enter /home/ubuntu/g16/l103.exe)

 GradGradGradGradGradGradGradGradGradGradGradGradGradGradGradGradGradGrad
 Berny optimization.
 Initialization pass.
                           ----------------------------
                           !    Initial Parameters    !
                           ! (Angstroms and Degrees)  !
 --------------------------                            --------------------------
 ! Name  Definition              Value          Derivative Info.                !
 --------------------------------------------------------------------------------
 ! R1    R(1,2)                  1.3955         estimate D2E/DX2                !
 ! R2    R(1,4)                  1.4078         estimate D2E/DX2                !
 ! R3    R(1,8)                  1.4239         estimate D2E/DX2                !
 ! R4    R(2,3)                  1.1176         estimate D2E/DX2                !
 ! R5    R(4,5)                  1.4275         estimate D2E/DX2                !
 ! R6    R(5,6)                  1.3938         estimate D2E/DX2                !
 ! R7    R(5,9)                  1.0942         estimate D2E/DX2                !
 ! R8    R(6,7)                  1.4189         estimate D2E/DX2                !
 ! R9    R(6,10)                 1.0937         estimate D2E/DX2                !
 ! R10   R(7,8)                  1.3789         estimate D2E/DX2                !
 ! R11   R(7,11)                 1.0895         estimate D2E/DX2                !
 ! R12   R(8,12)                 1.0907         estimate D2E/DX2                !
 ! A1    A(2,1,4)              112.6287         estimate D2E/DX2                !
 ! A2    A(2,1,8)              116.389          estimate D2E/DX2                !
 ! A3    A(4,1,8)              130.9823         estimate D2E/DX2                !
 ! A4    A(1,4,5)              109.1479         estimate D2E/DX2                !
 ! A5    A(4,5,6)              123.9147         estimate D2E/DX2                !
 ! A6    A(4,5,9)              118.4469         estimate D2E/DX2                !
 ! A7    A(6,5,9)              117.6383         estimate D2E/DX2                !
 ! A8    A(5,6,7)              121.7957         estimate D2E/DX2                !
 ! A9    A(5,6,10)             119.7079         estimate D2E/DX2                !
 ! A10   A(7,6,10)             118.4964         estimate D2E/DX2                !
 ! A11   A(6,7,8)              119.0599         estimate D2E/DX2                !
 ! A12   A(6,7,11)             120.5051         estimate D2E/DX2                !
 ! A13   A(8,7,11)             120.435          estimate D2E/DX2                !
 ! A14   A(1,8,7)              115.0994         estimate D2E/DX2                !
 ! A15   A(1,8,12)             122.3755         estimate D2E/DX2                !
 ! A16   A(7,8,12)             122.5251         estimate D2E/DX2                !
 ! A17   L(1,2,3,12,-1)        183.4389         estimate D2E/DX2                !
 ! A18   L(1,2,3,12,-2)        179.9552         estimate D2E/DX2                !
 ! D1    D(2,1,4,5)            179.9367         estimate D2E/DX2                !
 ! D2    D(8,1,4,5)             -0.0284         estimate D2E/DX2                !
 ! D3    D(2,1,8,7)           -179.9114         estimate D2E/DX2                !
 ! D4    D(2,1,8,12)             0.0975         estimate D2E/DX2                !
 ! D5    D(4,1,8,7)              0.0527         estimate D2E/DX2                !
 ! D6    D(4,1,8,12)          -179.9384         estimate D2E/DX2                !
 ! D7    D(1,4,5,6)             -0.0395         estimate D2E/DX2                !
 ! D8    D(1,4,5,9)            179.9991         estimate D2E/DX2                !
 ! D9    D(4,5,6,7)              0.0808         estimate D2E/DX2                !
 ! D10   D(4,5,6,10)          -179.9203         estimate D2E/DX2                !
 ! D11   D(9,5,6,7)           -179.9575         estimate D2E/DX2                !
 ! D12   D(9,5,6,10)             0.0414         estimate D2E/DX2                !
 ! D13   D(5,6,7,8)             -0.0522         estimate D2E/DX2                !
 ! D14   D(5,6,7,11)           179.9787         estimate D2E/DX2                !
 ! D15   D(10,6,7,8)           179.9489         estimate D2E/DX2                !
 ! D16   D(10,6,7,11)           -0.0202         estimate D2E/DX2                !
 ! D17   D(6,7,8,1)             -0.0086         estimate D2E/DX2                !
 ! D18   D(6,7,8,12)           179.9825         estimate D2E/DX2                !
 ! D19   D(11,7,8,1)           179.9605         estimate D2E/DX2                !
 ! D20   D(11,7,8,12)           -0.0484         estimate D2E/DX2                !
 --------------------------------------------------------------------------------
 Trust Radius=3.00D-01 FncErr=1.00D-07 GrdErr=1.00D-06 EigMax=2.50D+02 EigMin=1.00D-04
 Number of steps in this run=    100 maximum allowed number of steps=    100.
 GradGradGradGradGradGradGradGradGradGradGradGradGradGradGradGradGradGrad

 Leave Link  103 at Sat Nov  5 22:52:49 2016, MaxMem=   524288000 cpu:               0.1 elap:               0.0
 (Enter /home/ubuntu/g16/l202.exe)
                          Input orientation:                          
 ---------------------------------------------------------------------
 Center     Atomic      Atomic             Coordinates (Angstroms)
 Number     Number       Type             X           Y           Z
 ---------------------------------------------------------------------
      1          6           0       -1.203980   -0.391920   -0.059180
      2          7           0       -2.591830   -0.530880   -0.104850
      3          7           0       -3.707990   -0.575260   -0.140820
      4          6           0       -0.794640    0.955020   -0.044780
      5          6           0        0.630930    1.010660    0.003560
      6          6           0        1.452630   -0.114830    0.031770
      7          6           0        0.920170   -1.429900    0.012400
      8          6           0       -0.447670   -1.598050   -0.034550
      9          1           0        1.113970    1.992350    0.020300
     10          1           0        2.538800    0.007860    0.069900
     11          1           0        1.582140   -2.294990    0.034800
     12          1           0       -0.917270   -2.582320   -0.051760
 ---------------------------------------------------------------------
                    Distance matrix (angstroms):
                    1          2          3          4          5
     1  C    0.000000
     2  N    1.395537   0.000000
     3  N    2.512040   1.117621   0.000000
     4  C    1.407840   2.332681   3.292201   0.000000
     5  C    2.310425   3.574113   4.621928   1.427474   0.000000
     6  C    2.672569   4.068098   5.183993   2.490113   1.393813
     7  C    2.365278   3.627138   4.708901   2.937973   2.457656
     8  C    1.423854   2.396083   3.418637   2.576560   2.823154
     9  H    3.326252   4.485009   5.465334   2.173265   1.094223
    10  H    3.766283   5.161796   6.277485   3.467288   2.156380
    11  H    3.375348   4.533609   5.565410   4.027155   3.439927
    12  H    2.209097   2.648655   3.438654   3.539472   3.912734
                    6          7          8          9         10
     6  C    0.000000
     7  C    1.418907   0.000000
     8  C    2.411531   1.378936   0.000000
     9  H    2.134252   3.427742   3.915699   0.000000
    10  H    1.093742   2.165738   3.392471   2.443522   0.000000
    11  H    2.184005   1.089535   2.147246   4.312850   2.493902
    12  H    3.422267   2.169879   1.090691   5.005870   4.320677
                   11         12
    11  H    0.000000
    12  H    2.517360   0.000000
 Stoichiometry    C6H4N2
 Framework group  C1[X(C6H4N2)]
 Deg. of freedom    30
 Full point group                 C1      NOp   1
 Largest Abelian subgroup         C1      NOp   1
 Largest concise Abelian subgroup C1      NOp   1
                         Standard orientation:                         
 ---------------------------------------------------------------------
 Center     Atomic      Atomic             Coordinates (Angstroms)
 Number     Number       Type             X           Y           Z
 ---------------------------------------------------------------------
      1          6           0        0.529416   -0.024222   -0.000892
      2          7           0        1.924805   -0.003931   -0.000075
      3          7           0        3.041270   -0.054742    0.001308
      4          6           0        0.006690   -1.331422   -0.000875
      5          6           0       -1.419260   -1.265481   -0.000242
      6          6           0       -2.142687   -0.074110    0.001064
      7          6           0       -1.499903    1.190851    0.000179
      8          6           0       -0.121913    1.241926   -0.000937
      9          1           0       -1.984374   -2.202481   -0.000163
     10          1           0       -3.236023   -0.103870    0.002803
     11          1           0       -2.086234    2.109166    0.000884
     12          1           0        0.430052    2.182639   -0.001934
 ---------------------------------------------------------------------
 Rotational constants (GHZ):           5.5983863           1.6310252           1.2630506
 Leave Link  202 at Sat Nov  5 22:52:49 2016, MaxMem=   524288000 cpu:               0.0 elap:               0.0
 (Enter /home/ubuntu/g16/l301.exe)
 Standard basis: Aug-CC-pVDZ (5D, 7F)
 Ernie: Thresh=  0.10000D-02 Tol=  0.10000D-05 Strict=F.
 Ernie:  16 primitive shells out of 228 were deleted.
 There are   236 symmetry adapted cartesian basis functions of A   symmetry.
 There are   220 symmetry adapted basis functions of A   symmetry.
   220 basis functions,   388 primitive gaussians,   236 cartesian basis functions
    27 alpha electrons       27 beta electrons
       nuclear repulsion energy       301.9605268094 Hartrees.
 IExCor=  402 DFT=T Ex+Corr=B3LYP ExCW=0 ScaHFX=  0.200000
 ScaDFX=  0.800000  0.720000  1.000000  0.810000 ScalE2=  1.000000  1.000000
 IRadAn=      5 IRanWt=     -1 IRanGd=            0 ICorTp=0 IEmpDi=  4
 NAtoms=   12 NActive=   12 NUniq=   12 SFac= 1.00D+00 NAtFMM=   60 NAOKFM=F Big=F
 Integral buffers will be    131072 words long.
 Raffenetti 2 integral format.
 Two-electron integral symmetry is turned on.
 Leave Link  301 at Sat Nov  5 22:52:49 2016, MaxMem=   524288000 cpu:               0.2 elap:               0.0
 (Enter /home/ubuntu/g16/l302.exe)
 NPDir=0 NMtPBC=     1 NCelOv=     1 NCel=       1 NClECP=     1 NCelD=      1
         NCelK=      1 NCelE2=     1 NClLst=     1 CellRange=     0.0.
 One-electron integrals computed using PRISM.
 One-electron integral symmetry used in STVInt
 NBasis=   220 RedAO= T EigKep=  5.39D-06  NBF=   220
 NBsUse=   220 1.00D-06 EigRej= -1.00D+00 NBFU=   220
 Precomputing XC quadrature grid using
 IXCGrd= 4 IRadAn=           5 IRanWt=          -1 IRanGd=           0 AccXCQ= 0.00D+00.
 Generated NRdTot=       0 NPtTot=           0 NUsed=           0 NTot=          32
 NSgBfM=   236   236   236   236   236 MxSgAt=    12 MxSgA2=    12.
 Leave Link  302 at Sat Nov  5 22:52:49 2016, MaxMem=   524288000 cpu:               1.9 elap:               0.3
 (Enter /home/ubuntu/g16/l303.exe)
 DipDrv:  MaxL=1.
 Leave Link  303 at Sat Nov  5 22:52:49 2016, MaxMem=   524288000 cpu:               0.3 elap:               0.0
 (Enter /home/ubuntu/g16/l401.exe)
 ExpMin= 2.97D-02 ExpMax= 9.05D+03 ExpMxC= 3.09D+02 IAcc=3 IRadAn=         5 AccDes= 0.00D+00
 Harris functional with IExCor=  402 and IRadAn=       5 diagonalized for initial guess.
 HarFok:  IExCor=  402 AccDes= 0.00D+00 IRadAn=         5 IDoV= 1 UseB2=F ITyADJ=14
 ICtDFT=  3500011 ScaDFX=  1.000000  1.000000  1.000000  1.000000
 FoFCou: FMM=F IPFlag=           0 FMFlag=      100000 FMFlg1=           0
         NFxFlg=           0 DoJE=T BraDBF=F KetDBF=T FulRan=T
         wScrn=  0.000000 ICntrl=       500 IOpCl=  0 I1Cent=   200000004 NGrid=           0
         NMat0=    1 NMatS0=      1 NMatT0=    0 NMatD0=    1 NMtDS0=    0 NMtDT0=    0
 Petite list used in FoFCou.
 Harris En= -340.466512489681    
 JPrj=0 DoOrth=F DoCkMO=F.
 Initial guess <Sx>= 0.0000 <Sy>= 0.0000 <Sz>= 0.0000 <S**2>=-0.0000 S=-0.0000
 Leave Link  401 at Sat Nov  5 22:52:51 2016, MaxMem=   524288000 cpu:              11.1 elap:               1.6
 (Enter /home/ubuntu/g16/l502.exe)
 Integral symmetry usage will be decided dynamically.
 UHF open shell SCF:
 Using DIIS extrapolation, IDIIS=  1040.
 NGot=   524288000 LenX=   524172708 LenY=   524116571
 Requested convergence on RMS density matrix=1.00D-08 within 128 cycles.
 Requested convergence on MAX density matrix=1.00D-06.
 Requested convergence on             energy=1.00D-06.
 No special actions if energy rises.
 Fock matrices will be formed incrementally for  20 cycles.

 Cycle   1  Pass 1  IDiag  1:
 FoFJK:  IHMeth= 1 ICntrl=       0 DoSepK=F KAlg= 0 I1Cent=           0 FoldK=F
 IRaf= 990000000 NMat=       1 IRICut=       1 DoRegI=T DoRafI=F ISym2E= 0 IDoP0=0 IntGTp=1.
 FoFCou: FMM=F IPFlag=           0 FMFlag=      100000 FMFlg1=           0
         NFxFlg=           0 DoJE=F BraDBF=F KetDBF=F FulRan=T
         wScrn=  0.000000 ICntrl=         0 IOpCl=  1 I1Cent=           0 NGrid=           0
         NMat0=    1 NMatS0=      1 NMatT0=    0 NMatD0=    1 NMtDS0=    0 NMtDT0=    0
 Symmetry not used in FoFCou.
 E= -340.181171683714    
 DIIS: error= 3.05D-02 at cycle   1 NSaved=   1.
 NSaved= 1 IEnMin= 1 EnMin= -340.181171683714     IErMin= 1 ErrMin= 3.05D-02
 ErrMax= 3.05D-02  0.00D+00 EMaxC= 1.00D-01 BMatC= 7.96D-01 BMatP= 7.96D-01
 IDIUse=3 WtCom= 6.95D-01 WtEn= 3.05D-01
 Coeff-Com:  0.100D+01
 Coeff-En:   0.100D+01
 Coeff:      0.100D+01
 Gap=    -0.023 Goal=   None    Shift=    0.000
 Gap=    -0.023 Goal=   None    Shift=    0.000
 GapD=   -0.023 DampG=0.250 DampE=0.500 DampFc=0.2500 IDamp=-1.
 Damping current iteration by 2.50D-01
 RMSDP=4.08D-02 MaxDP=1.19D+00              OVMax= 7.77D-01

 Cycle   2  Pass 1  IDiag  1:
 RMSU=  5.23D-03    CP:  9.05D-01
 E= -340.112355120240     Delta-E=        0.068816563474 Rises=F Damp=T
 DIIS: error= 1.33D-02 at cycle   2 NSaved=   2.
 NSaved= 2 IEnMin= 1 EnMin= -340.181171683714     IErMin= 2 ErrMin= 1.33D-02
 ErrMax= 1.33D-02  0.00D+00 EMaxC= 1.00D-01 BMatC= 2.00D-01 BMatP= 7.96D-01
 IDIUse=3 WtCom= 8.67D-01 WtEn= 1.33D-01
 Coeff-Com:  0.167D+00 0.833D+00
 Coeff-En:   0.599D+00 0.401D+00
 Coeff:      0.224D+00 0.776D+00
 Gap=    -0.059 Goal=   None    Shift=    0.000
 Gap=    -0.059 Goal=   None    Shift=    0.000
 RMSDP=2.83D-02 MaxDP=7.69D-01 DE= 6.88D-02 OVMax= 9.91D-01

 Cycle   3  Pass 1  IDiag  1:
 RMSU=  1.08D-02    CP:  6.26D-01  2.02D+00
 E= -340.299525430107     Delta-E=       -0.187170309867 Rises=F Damp=F
 DIIS: error= 1.92D-02 at cycle   3 NSaved=   3.
 NSaved= 3 IEnMin= 3 EnMin= -340.299525430107     IErMin= 2 ErrMin= 1.33D-02
 ErrMax= 1.92D-02  0.00D+00 EMaxC= 1.00D-01 BMatC= 4.54D-01 BMatP= 2.00D-01
 IDIUse=2 WtCom= 0.00D+00 WtEn= 1.00D+00
 Coeff-En:   0.000D+00 0.217D+00 0.783D+00
 Coeff:      0.000D+00 0.217D+00 0.783D+00
 Gap=     0.027 Goal=   None    Shift=    0.000
 Gap=     0.027 Goal=   None    Shift=    0.000
 RMSDP=1.20D-02 MaxDP=3.89D-01 DE=-1.87D-01 OVMax= 9.47D-01

 Cycle   4  Pass 1  IDiag  1:
 RMSU=  6.71D-03    CP:  6.62D-01  2.35D+00  1.39D-01
 E= -338.580000004257     Delta-E=        1.719525425850 Rises=F Damp=F
 DIIS: error= 7.35D-02 at cycle   4 NSaved=   4.
 NSaved= 4 IEnMin= 3 EnMin= -340.299525430107     IErMin= 2 ErrMin= 1.33D-02
 ErrMax= 7.35D-02  0.00D+00 EMaxC= 1.00D-01 BMatC= 4.69D+00 BMatP= 2.00D-01
 IDIUse=2 WtCom= 0.00D+00 WtEn= 1.00D+00
 EnCoef did     4 forward-backward iterations
 Coeff-En:   0.418D-01 0.000D+00 0.819D+00 0.140D+00
 Coeff:      0.418D-01 0.000D+00 0.819D+00 0.140D+00
 Gap=     0.008 Goal=   None    Shift=    0.000
 Gap=     0.008 Goal=   None    Shift=    0.000
 RMSDP=9.01D-03 MaxDP=2.77D-01 DE= 1.72D+00 OVMax= 9.45D-01

 Cycle   5  Pass 1  IDiag  1:
 RMSU=  4.76D-03    CP:  6.73D-01  1.73D+00  6.46D-01  3.87D-01
 E= -340.365767239049     Delta-E=       -1.785767234792 Rises=F Damp=F
 DIIS: error= 2.57D-02 at cycle   5 NSaved=   5.
 NSaved= 5 IEnMin= 5 EnMin= -340.365767239049     IErMin= 2 ErrMin= 1.33D-02
 ErrMax= 2.57D-02  0.00D+00 EMaxC= 1.00D-01 BMatC= 3.52D-01 BMatP= 2.00D-01
 IDIUse=2 WtCom= 0.00D+00 WtEn= 1.00D+00
 Coeff-En:   0.000D+00 0.000D+00 0.370D+00 0.000D+00 0.630D+00
 Coeff:      0.000D+00 0.000D+00 0.370D+00 0.000D+00 0.630D+00
 Gap=     0.071 Goal=   None    Shift=    0.000
 Gap=     0.071 Goal=   None    Shift=    0.000
 RMSDP=3.69D-03 MaxDP=9.79D-02 DE=-1.79D+00 OVMax= 1.20D-01

 Cycle   6  Pass 1  IDiag  1:
 RMSU=  2.66D-03    CP:  6.64D-01  1.82D+00  7.40D-01  1.56D-01  6.97D-01
 E= -340.386787874989     Delta-E=       -0.021020635940 Rises=F Damp=F
 DIIS: error= 2.22D-02 at cycle   6 NSaved=   6.
 NSaved= 6 IEnMin= 6 EnMin= -340.386787874989     IErMin= 2 ErrMin= 1.33D-02
 ErrMax= 2.22D-02  0.00D+00 EMaxC= 1.00D-01 BMatC= 2.76D-01 BMatP= 2.00D-01
 IDIUse=2 WtCom= 0.00D+00 WtEn= 1.00D+00
 EnCoef did     3 forward-backward iterations
 Coeff-En:   0.000D+00 0.000D+00 0.122D-02 0.000D+00 0.436D+00 0.563D+00
 Coeff:      0.000D+00 0.000D+00 0.122D-02 0.000D+00 0.436D+00 0.563D+00
 Gap=     0.128 Goal=   None    Shift=    0.000
 Gap=     0.128 Goal=   None    Shift=    0.000
 RMSDP=2.87D-03 MaxDP=8.68D-02 DE=-2.10D-02 OVMax= 9.50D-02

 Cycle   7  Pass 1  IDiag  1:
 RMSU=  1.43D-03    CP:  6.54D-01  1.77D+00  8.32D-01  2.06D-01  4.75D-01
                    CP:  3.28D-01
 E= -340.416343956760     Delta-E=       -0.029556081771 Rises=F Damp=F
 DIIS: error= 8.24D-03 at cycle   7 NSaved=   7.
 NSaved= 7 IEnMin= 7 EnMin= -340.416343956760     IErMin= 7 ErrMin= 8.24D-03
 ErrMax= 8.24D-03  0.00D+00 EMaxC= 1.00D-01 BMatC= 8.72D-02 BMatP= 2.00D-01
 IDIUse=3 WtCom= 9.18D-01 WtEn= 8.24D-02
 EnCoef did     6 forward-backward iterations
 Coeff-Com: -0.280D-01 0.478D-02 0.480D-01-0.619D-02 0.309D+00 0.357D+00
 Coeff-Com:  0.316D+00
 Coeff-En:   0.000D+00 0.000D+00 0.000D+00 0.000D+00 0.182D+00 0.325D+00
 Coeff-En:   0.492D+00
 Coeff:     -0.257D-01 0.438D-02 0.440D-01-0.568D-02 0.298D+00 0.354D+00
 Coeff:      0.331D+00
 Gap=     0.085 Goal=   None    Shift=    0.000
 Gap=     0.085 Goal=   None    Shift=    0.000
 RMSDP=1.99D-03 MaxDP=7.28D-02 DE=-2.96D-02 OVMax= 7.69D-02

 Cycle   8  Pass 1  IDiag  1:
 RMSU=  6.24D-04    CP:  6.60D-01  1.83D+00  7.82D-01  2.28D-01  7.47D-01
                    CP:  5.31D-01  3.20D-01
 E= -340.440042303071     Delta-E=       -0.023698346311 Rises=F Damp=F
 DIIS: error= 2.13D-03 at cycle   8 NSaved=   8.
 NSaved= 8 IEnMin= 8 EnMin= -340.440042303071     IErMin= 8 ErrMin= 2.13D-03
 ErrMax= 2.13D-03  0.00D+00 EMaxC= 1.00D-01 BMatC= 2.37D-03 BMatP= 8.72D-02
 IDIUse=3 WtCom= 9.79D-01 WtEn= 2.13D-02
 Coeff-Com: -0.154D-01 0.109D-01-0.109D-01-0.185D-02 0.851D-01 0.166D+00
 Coeff-Com:  0.241D+00 0.525D+00
 Coeff-En:   0.000D+00 0.000D+00 0.000D+00 0.000D+00 0.000D+00 0.000D+00
 Coeff-En:   0.000D+00 0.100D+01
 Coeff:     -0.151D-01 0.106D-01-0.107D-01-0.181D-02 0.832D-01 0.162D+00
 Coeff:      0.236D+00 0.535D+00
 Gap=     0.090 Goal=   None    Shift=    0.000
 Gap=     0.090 Goal=   None    Shift=    0.000
 RMSDP=4.38D-04 MaxDP=2.03D-02 DE=-2.37D-02 OVMax= 1.64D-02

 Cycle   9  Pass 1  IDiag  1:
 RMSU=  1.99D-04    CP:  6.60D-01  1.82D+00  7.79D-01  2.21D-01  7.02D-01
                    CP:  5.02D-01  4.15D-01  5.54D-01
 E= -340.440724334159     Delta-E=       -0.000682031088 Rises=F Damp=F
 DIIS: error= 6.37D-04 at cycle   9 NSaved=   9.
 NSaved= 9 IEnMin= 9 EnMin= -340.440724334159     IErMin= 9 ErrMin= 6.37D-04
 ErrMax= 6.37D-04  0.00D+00 EMaxC= 1.00D-01 BMatC= 2.18D-04 BMatP= 2.37D-03
 IDIUse=3 WtCom= 9.94D-01 WtEn= 6.37D-03
 Coeff-Com: -0.589D-02-0.267D-03-0.172D-01 0.677D-03 0.150D-01 0.531D-01
 Coeff-Com:  0.939D-01 0.290D+00 0.571D+00
 Coeff-En:   0.000D+00 0.000D+00 0.000D+00 0.000D+00 0.000D+00 0.000D+00
 Coeff-En:   0.000D+00 0.633D-01 0.937D+00
 Coeff:     -0.585D-02-0.265D-03-0.171D-01 0.673D-03 0.149D-01 0.527D-01
 Coeff:      0.933D-01 0.288D+00 0.573D+00
 Gap=     0.089 Goal=   None    Shift=    0.000
 Gap=     0.089 Goal=   None    Shift=    0.000
 RMSDP=1.22D-04 MaxDP=5.05D-03 DE=-6.82D-04 OVMax= 3.64D-03

 Cycle  10  Pass 1  IDiag  1:
 RMSU=  7.43D-05    CP:  6.60D-01  1.82D+00  7.81D-01  2.21D-01  7.12D-01
                    CP:  5.17D-01  4.16D-01  6.41D-01  7.53D-01
 E= -340.440784834181     Delta-E=       -0.000060500022 Rises=F Damp=F
 DIIS: error= 2.17D-04 at cycle  10 NSaved=  10.
 NSaved=10 IEnMin=10 EnMin= -340.440784834181     IErMin=10 ErrMin= 2.17D-04
 ErrMax= 2.17D-04  0.00D+00 EMaxC= 1.00D-01 BMatC= 2.36D-05 BMatP= 2.18D-04
 IDIUse=3 WtCom= 9.98D-01 WtEn= 2.17D-03
 Coeff-Com: -0.149D-02 0.109D-02-0.300D-02 0.169D-03-0.238D-02-0.184D-02
 Coeff-Com:  0.967D-03 0.804D-01 0.241D+00 0.685D+00
 Coeff-En:   0.000D+00 0.000D+00 0.000D+00 0.000D+00 0.000D+00 0.000D+00
 Coeff-En:   0.000D+00 0.000D+00 0.000D+00 0.100D+01
 Coeff:     -0.149D-02 0.109D-02-0.300D-02 0.169D-03-0.237D-02-0.184D-02
 Coeff:      0.965D-03 0.802D-01 0.241D+00 0.686D+00
 Gap=     0.088 Goal=   None    Shift=    0.000
 Gap=     0.088 Goal=   None    Shift=    0.000
 RMSDP=4.03D-05 MaxDP=1.10D-03 DE=-6.05D-05 OVMax= 1.50D-03

 Cycle  11  Pass 1  IDiag  1:
 RMSU=  3.02D-05    CP:  6.60D-01  1.82D+00  7.80D-01  2.21D-01  7.14D-01
                    CP:  5.19D-01  4.12D-01  6.62D-01  7.93D-01  8.61D-01
 E= -340.440792425936     Delta-E=       -0.000007591755 Rises=F Damp=F
 DIIS: error= 7.31D-05 at cycle  11 NSaved=  11.
 NSaved=11 IEnMin=11 EnMin= -340.440792425936     IErMin=11 ErrMin= 7.31D-05
 ErrMax= 7.31D-05  0.00D+00 EMaxC= 1.00D-01 BMatC= 3.79D-06 BMatP= 2.36D-05
 IDIUse=1 WtCom= 1.00D+00 WtEn= 0.00D+00
 Coeff-Com: -0.341D-03 0.353D-03-0.557D-03 0.564D-04-0.262D-02-0.606D-02
 Coeff-Com: -0.922D-02 0.183D-01 0.658D-01 0.368D+00 0.567D+00
 Coeff:     -0.341D-03 0.353D-03-0.557D-03 0.564D-04-0.262D-02-0.606D-02
 Coeff:     -0.922D-02 0.183D-01 0.658D-01 0.368D+00 0.567D+00
 Gap=     0.088 Goal=   None    Shift=    0.000
 Gap=     0.088 Goal=   None    Shift=    0.000
 RMSDP=1.65D-05 MaxDP=5.97D-04 DE=-7.59D-06 OVMax= 6.86D-04

 Cycle  12  Pass 1  IDiag  1:
 RMSU=  1.04D-05    CP:  6.60D-01  1.82D+00  7.80D-01  2.21D-01  7.15D-01
                    CP:  5.20D-01  4.13D-01  6.72D-01  8.18D-01  9.34D-01
                    CP:  9.11D-01
 E= -340.440793669384     Delta-E=       -0.000001243448 Rises=F Damp=F
 DIIS: error= 2.08D-05 at cycle  12 NSaved=  12.
 NSaved=12 IEnMin=12 EnMin= -340.440793669384     IErMin=12 ErrMin= 2.08D-05
 ErrMax= 2.08D-05  0.00D+00 EMaxC= 1.00D-01 BMatC= 3.84D-07 BMatP= 3.79D-06
 IDIUse=1 WtCom= 1.00D+00 WtEn= 0.00D+00
 Coeff-Com:  0.128D-03-0.636D-04 0.231D-03 0.441D-05-0.500D-03-0.177D-02
 Coeff-Com: -0.364D-02-0.106D-01-0.408D-01-0.186D-01 0.278D+00 0.798D+00
 Coeff:      0.128D-03-0.636D-04 0.231D-03 0.441D-05-0.500D-03-0.177D-02
 Coeff:     -0.364D-02-0.106D-01-0.408D-01-0.186D-01 0.278D+00 0.798D+00
 Gap=     0.088 Goal=   None    Shift=    0.000
 Gap=     0.088 Goal=   None    Shift=    0.000
 RMSDP=8.53D-06 MaxDP=3.39D-04 DE=-1.24D-06 OVMax= 5.77D-04

 Cycle  13  Pass 1  IDiag  1:
 RMSU=  3.33D-06    CP:  6.60D-01  1.83D+00  7.80D-01  2.21D-01  7.15D-01
                    CP:  5.20D-01  4.13D-01  6.77D-01  8.28D-01  9.82D-01
                    CP:  1.02D+00  8.73D-01
 E= -340.440793866743     Delta-E=       -0.000000197360 Rises=F Damp=F
 DIIS: error= 4.94D-06 at cycle  13 NSaved=  13.
 NSaved=13 IEnMin=13 EnMin= -340.440793866743     IErMin=13 ErrMin= 4.94D-06
 ErrMax= 4.94D-06  0.00D+00 EMaxC= 1.00D-01 BMatC= 2.56D-08 BMatP= 3.84D-07
 IDIUse=1 WtCom= 1.00D+00 WtEn= 0.00D+00
 Coeff-Com:  0.132D-03-0.112D-03 0.569D-04 0.277D-05-0.156D-03-0.303D-03
 Coeff-Com: -0.708D-03-0.442D-02-0.202D-01-0.329D-01 0.744D-01 0.333D+00
 Coeff-Com:  0.651D+00
 Coeff:      0.132D-03-0.112D-03 0.569D-04 0.277D-05-0.156D-03-0.303D-03
 Coeff:     -0.708D-03-0.442D-02-0.202D-01-0.329D-01 0.744D-01 0.333D+00
 Coeff:      0.651D+00
 Gap=     0.088 Goal=   None    Shift=    0.000
 Gap=     0.088 Goal=   None    Shift=    0.000
 RMSDP=1.81D-06 MaxDP=5.16D-05 DE=-1.97D-07 OVMax= 1.28D-04

 Cycle  14  Pass 1  IDiag  1:
 RMSU=  1.14D-06    CP:  6.60D-01  1.83D+00  7.80D-01  2.21D-01  7.15D-01
                    CP:  5.20D-01  4.13D-01  6.78D-01  8.28D-01  9.92D-01
                    CP:  1.05D+00  9.26D-01  9.73D-01
 E= -340.440793877877     Delta-E=       -0.000000011134 Rises=F Damp=F
 DIIS: error= 2.65D-06 at cycle  14 NSaved=  14.
 NSaved=14 IEnMin=14 EnMin= -340.440793877877     IErMin=14 ErrMin= 2.65D-06
 ErrMax= 2.65D-06  0.00D+00 EMaxC= 1.00D-01 BMatC= 7.66D-09 BMatP= 2.56D-08
 IDIUse=1 WtCom= 1.00D+00 WtEn= 0.00D+00
 Coeff-Com:  0.775D-04-0.492D-04 0.352D-04-0.197D-05-0.785D-04-0.283D-04
 Coeff-Com:  0.413D-04-0.112D-02-0.565D-02-0.165D-01 0.395D-02 0.669D-01
 Coeff-Com:  0.299D+00 0.654D+00
 Coeff:      0.775D-04-0.492D-04 0.352D-04-0.197D-05-0.785D-04-0.283D-04
 Coeff:      0.413D-04-0.112D-02-0.565D-02-0.165D-01 0.395D-02 0.669D-01
 Coeff:      0.299D+00 0.654D+00
 Gap=     0.088 Goal=   None    Shift=    0.000
 Gap=     0.088 Goal=   None    Shift=    0.000
 RMSDP=8.49D-07 MaxDP=1.77D-05 DE=-1.11D-08 OVMax= 6.38D-05

 Cycle  15  Pass 1  IDiag  1:
 RMSU=  4.56D-07    CP:  6.60D-01  1.83D+00  7.80D-01  2.20D-01  7.15D-01
                    CP:  5.21D-01  4.13D-01  6.78D-01  8.29D-01  9.95D-01
                    CP:  1.07D+00  9.44D-01  1.00D+00  8.94D-01
 E= -340.440793880968     Delta-E=       -0.000000003091 Rises=F Damp=F
 DIIS: error= 9.47D-07 at cycle  15 NSaved=  15.
 NSaved=15 IEnMin=15 EnMin= -340.440793880968     IErMin=15 ErrMin= 9.47D-07
 ErrMax= 9.47D-07  0.00D+00 EMaxC= 1.00D-01 BMatC= 1.11D-09 BMatP= 7.66D-09
 IDIUse=1 WtCom= 1.00D+00 WtEn= 0.00D+00
 Coeff-Com: -0.268D-06 0.880D-05 0.323D-05-0.116D-05-0.200D-04-0.955D-05
 Coeff-Com:  0.113D-03 0.247D-03 0.154D-02 0.116D-02-0.345D-02-0.309D-01
 Coeff-Com: -0.579D-01 0.204D+00 0.885D+00
 Coeff:     -0.268D-06 0.880D-05 0.323D-05-0.116D-05-0.200D-04-0.955D-05
 Coeff:      0.113D-03 0.247D-03 0.154D-02 0.116D-02-0.345D-02-0.309D-01
 Coeff:     -0.579D-01 0.204D+00 0.885D+00
 Gap=     0.088 Goal=   None    Shift=    0.000
 Gap=     0.088 Goal=   None    Shift=    0.000
 RMSDP=3.81D-07 MaxDP=8.86D-06 DE=-3.09D-09 OVMax= 3.13D-05

 Cycle  16  Pass 1  IDiag  1:
 RMSU=  1.61D-07    CP:  6.60D-01  1.83D+00  7.80D-01  2.20D-01  7.15D-01
                    CP:  5.20D-01  4.13D-01  6.78D-01  8.30D-01  9.97D-01
                    CP:  1.07D+00  9.45D-01  1.03D+00  1.00D+00  9.70D-01
 E= -340.440793881408     Delta-E=       -0.000000000440 Rises=F Damp=F
 DIIS: error= 3.28D-07 at cycle  16 NSaved=  16.
 NSaved=16 IEnMin=16 EnMin= -340.440793881408     IErMin=16 ErrMin= 3.28D-07
 ErrMax= 3.28D-07  0.00D+00 EMaxC= 1.00D-01 BMatC= 1.05D-10 BMatP= 1.11D-09
 IDIUse=1 WtCom= 1.00D+00 WtEn= 0.00D+00
 Coeff-Com: -0.388D-05 0.474D-05 0.142D-05-0.598D-06 0.311D-05 0.185D-05
 Coeff-Com:  0.347D-04-0.205D-04 0.331D-03-0.113D-03-0.171D-02-0.128D-01
 Coeff-Com: -0.251D-01 0.558D-01 0.283D+00 0.700D+00
 Coeff:     -0.388D-05 0.474D-05 0.142D-05-0.598D-06 0.311D-05 0.185D-05
 Coeff:      0.347D-04-0.205D-04 0.331D-03-0.113D-03-0.171D-02-0.128D-01
 Coeff:     -0.251D-01 0.558D-01 0.283D+00 0.700D+00
 Gap=     0.088 Goal=   None    Shift=    0.000
 Gap=     0.088 Goal=   None    Shift=    0.000
 RMSDP=9.30D-08 MaxDP=2.29D-06 DE=-4.40D-10 OVMax= 5.12D-06

 Cycle  17  Pass 1  IDiag  1:
 RMSU=  4.30D-08    CP:  6.60D-01  1.83D+00  7.80D-01  2.20D-01  7.15D-01
                    CP:  5.21D-01  4.13D-01  6.78D-01  8.30D-01  9.97D-01
                    CP:  1.07D+00  9.46D-01  1.04D+00  1.01D+00  9.63D-01
                    CP:  9.61D-01
 E= -340.440793881452     Delta-E=       -0.000000000044 Rises=F Damp=F
 DIIS: error= 1.21D-07 at cycle  17 NSaved=  17.
 NSaved=17 IEnMin=17 EnMin= -340.440793881452     IErMin=17 ErrMin= 1.21D-07
 ErrMax= 1.21D-07  0.00D+00 EMaxC= 1.00D-01 BMatC= 1.13D-11 BMatP= 1.05D-10
 IDIUse=1 WtCom= 1.00D+00 WtEn= 0.00D+00
 Coeff-Com: -0.946D-06 0.505D-06-0.671D-06-0.174D-07 0.165D-05 0.262D-05
 Coeff-Com:  0.888D-05-0.491D-04-0.746D-04-0.426D-03-0.336D-03-0.184D-02
 Coeff-Com: -0.140D-02 0.235D-01 0.529D-01 0.202D+00 0.726D+00
 Coeff:     -0.946D-06 0.505D-06-0.671D-06-0.174D-07 0.165D-05 0.262D-05
 Coeff:      0.888D-05-0.491D-04-0.746D-04-0.426D-03-0.336D-03-0.184D-02
 Coeff:     -0.140D-02 0.235D-01 0.529D-01 0.202D+00 0.726D+00
 Gap=     0.088 Goal=   None    Shift=    0.000
 Gap=     0.088 Goal=   None    Shift=    0.000
 RMSDP=2.49D-08 MaxDP=6.45D-07 DE=-4.41D-11 OVMax= 8.08D-07

 Cycle  18  Pass 1  IDiag  1:
 RMSU=  1.32D-08    CP:  6.60D-01  1.83D+00  7.80D-01  2.20D-01  7.15D-01
                    CP:  5.21D-01  4.13D-01  6.78D-01  8.30D-01  9.97D-01
                    CP:  1.07D+00  9.46D-01  1.04D+00  1.01D+00  9.53D-01
                    CP:  9.66D-01  9.53D-01
 E= -340.440793881443     Delta-E=        0.000000000009 Rises=F Damp=F
 DIIS: error= 2.15D-08 at cycle  18 NSaved=  18.
 NSaved=18 IEnMin=17 EnMin= -340.440793881452     IErMin=18 ErrMin= 2.15D-08
 ErrMax= 2.15D-08  0.00D+00 EMaxC= 1.00D-01 BMatC= 8.92D-13 BMatP= 1.13D-11
 IDIUse=1 WtCom= 1.00D+00 WtEn= 0.00D+00
 Coeff-Com: -0.106D-06-0.141D-06-0.315D-06-0.230D-08 0.156D-05 0.259D-05
 Coeff-Com:  0.101D-05-0.175D-04-0.779D-04-0.187D-03-0.168D-04 0.543D-03
 Coeff-Com:  0.285D-02 0.612D-02-0.217D-01-0.266D-01 0.387D+00 0.652D+00
 Coeff:     -0.106D-06-0.141D-06-0.315D-06-0.230D-08 0.156D-05 0.259D-05
 Coeff:      0.101D-05-0.175D-04-0.779D-04-0.187D-03-0.168D-04 0.543D-03
 Coeff:      0.285D-02 0.612D-02-0.217D-01-0.266D-01 0.387D+00 0.652D+00
 Gap=     0.088 Goal=   None    Shift=    0.000
 Gap=     0.088 Goal=   None    Shift=    0.000
 RMSDP=1.15D-08 MaxDP=4.55D-07 DE= 9.44D-12 OVMax= 2.26D-07

 Cycle  19  Pass 1  IDiag  1:
 RMSU=  5.07D-09    CP:  6.60D-01  1.83D+00  7.80D-01  2.20D-01  7.15D-01
                    CP:  5.21D-01  4.13D-01  6.78D-01  8.30D-01  9.97D-01
                    CP:  1.07D+00  9.46D-01  1.04D+00  1.01D+00  9.50D-01
                    CP:  9.75D-01  1.04D+00  9.27D-01
 E= -340.440793881448     Delta-E=       -0.000000000005 Rises=F Damp=F
 DIIS: error= 7.89D-09 at cycle  19 NSaved=  19.
 NSaved=19 IEnMin=17 EnMin= -340.440793881452     IErMin=19 ErrMin= 7.89D-09
 ErrMax= 7.89D-09  0.00D+00 EMaxC= 1.00D-01 BMatC= 4.34D-14 BMatP= 8.92D-13
 IDIUse=1 WtCom= 1.00D+00 WtEn= 0.00D+00
 Coeff-Com:  0.277D-07-0.731D-08-0.271D-08 0.155D-08 0.182D-06 0.360D-06
 Coeff-Com: -0.236D-06 0.109D-05-0.568D-05 0.695D-05 0.495D-04 0.199D-03
 Coeff-Com:  0.603D-03 0.493D-03-0.106D-01-0.249D-01 0.369D-01 0.146D+00
 Coeff-Com:  0.851D+00
 Coeff:      0.277D-07-0.731D-08-0.271D-08 0.155D-08 0.182D-06 0.360D-06
 Coeff:     -0.236D-06 0.109D-05-0.568D-05 0.695D-05 0.495D-04 0.199D-03
 Coeff:      0.603D-03 0.493D-03-0.106D-01-0.249D-01 0.369D-01 0.146D+00
 Coeff:      0.851D+00
 Gap=     0.088 Goal=   None    Shift=    0.000
 Gap=     0.088 Goal=   None    Shift=    0.000
 RMSDP=2.56D-09 MaxDP=7.38D-08 DE=-5.12D-12 OVMax= 5.66D-08

 SCF Done:  E(UB3LYP) =  -340.440793881     A.U. after   19 cycles
            NFock= 19  Conv=0.26D-08     -V/T= 2.0065
 <Sx>= 0.0000 <Sy>= 0.0000 <Sz>= 0.0000 <S**2>=-0.0000 S=-0.0000
 <L.S>= 0.000000000000E+00
 KE= 3.382363697745D+02 PE=-1.393777361734D+03 EE= 4.131396712684D+02
 Annihilation of the first spin contaminant:
 S**2 before annihilation    -0.0000,   after     0.0000
 Leave Link  502 at Sat Nov  5 22:54:49 2016, MaxMem=   524288000 cpu:             822.0 elap:             117.4
 (Enter /home/ubuntu/g16/l601.exe)
 Copying SCF densities to generalized density rwf, IOpCl= 1 IROHF=0.

 **********************************************************************

            Population analysis using the SCF density.

 **********************************************************************

 Orbital symmetries:
 Alpha Orbitals:
       Occupied  (A) (A) (A) (A) (A) (A) (A) (A) (A) (A) (A) (A)
                 (A) (A) (A) (A) (A) (A) (A) (A) (A) (A) (A) (A)
                 (A) (A) (A)
       Virtual   (A) (A) (A) (A) (A) (A) (A) (A) (A) (A) (A) (A)
                 (A) (A) (A) (A) (A) (A) (A) (A) (A) (A) (A) (A)
                 (A) (A) (A) (A) (A) (A) (A) (A) (A) (A) (A) (A)
                 (A) (A) (A) (A) (A) (A) (A) (A) (A) (A) (A) (A)
                 (A) (A) (A) (A) (A) (A) (A) (A) (A) (A) (A) (A)
                 (A) (A) (A) (A) (A) (A) (A) (A) (A) (A) (A) (A)
                 (A) (A) (A) (A) (A) (A) (A) (A) (A) (A) (A) (A)
                 (A) (A) (A) (A) (A) (A) (A) (A) (A) (A) (A) (A)
                 (A) (A) (A) (A) (A) (A) (A) (A) (A) (A) (A) (A)
                 (A) (A) (A) (A) (A) (A) (A) (A) (A) (A) (A) (A)
                 (A) (A) (A) (A) (A) (A) (A) (A) (A) (A) (A) (A)
                 (A) (A) (A) (A) (A) (A) (A) (A) (A) (A) (A) (A)
                 (A) (A) (A) (A) (A) (A) (A) (A) (A) (A) (A) (A)
                 (A) (A) (A) (A) (A) (A) (A) (A) (A) (A) (A) (A)
                 (A) (A) (A) (A) (A) (A) (A) (A) (A) (A) (A) (A)
                 (A) (A) (A) (A) (A) (A) (A) (A) (A) (A) (A) (A)
                 (A)
 Beta  Orbitals:
       Occupied  (A) (A) (A) (A) (A) (A) (A) (A) (A) (A) (A) (A)
                 (A) (A) (A) (A) (A) (A) (A) (A) (A) (A) (A) (A)
                 (A) (A) (A)
       Virtual   (A) (A) (A) (A) (A) (A) (A) (A) (A) (A) (A) (A)
                 (A) (A) (A) (A) (A) (A) (A) (A) (A) (A) (A) (A)
                 (A) (A) (A) (A) (A) (A) (A) (A) (A) (A) (A) (A)
                 (A) (A) (A) (A) (A) (A) (A) (A) (A) (A) (A) (A)
                 (A) (A) (A) (A) (A) (A) (A) (A) (A) (A) (A) (A)
                 (A) (A) (A) (A) (A) (A) (A) (A) (A) (A) (A) (A)
                 (A) (A) (A) (A) (A) (A) (A) (A) (A) (A) (A) (A)
                 (A) (A) (A) (A) (A) (A) (A) (A) (A) (A) (A) (A)
                 (A) (A) (A) (A) (A) (A) (A) (A) (A) (A) (A) (A)
                 (A) (A) (A) (A) (A) (A) (A) (A) (A) (A) (A) (A)
                 (A) (A) (A) (A) (A) (A) (A) (A) (A) (A) (A) (A)
                 (A) (A) (A) (A) (A) (A) (A) (A) (A) (A) (A) (A)
                 (A) (A) (A) (A) (A) (A) (A) (A) (A) (A) (A) (A)
                 (A) (A) (A) (A) (A) (A) (A) (A) (A) (A) (A) (A)
                 (A) (A) (A) (A) (A) (A) (A) (A) (A) (A) (A) (A)
                 (A) (A) (A) (A) (A) (A) (A) (A) (A) (A) (A) (A)
                 (A)
 The electronic state is 1-A.
     Natural Orbital Coefficients:
                           1         2         3         4         5
     Eigenvalues --     2.00000   2.00000   2.00000   2.00000   2.00000
   1 1   C  1S         -0.03520  -0.21688   0.05434   0.02100  -0.05048
   2        2S          0.02405   0.25136  -0.01215  -0.00912  -0.03976
   3        3S          0.04243   0.31837   0.05820  -0.20770  -0.13609
   4        4S         -0.01610   0.14686   0.43782  -0.36549   0.82682
   5        5PX         0.00424   0.13811   0.06577  -0.01420   0.10722
   6        5PY        -0.00096  -0.01237  -0.07688   0.10906  -0.03790
   7        5PZ         0.12413  -0.00160  -0.19823  -0.12656   0.10149
   8        6PX        -0.01039   0.02160  -0.01877   0.04947   0.09508
   9        6PY         0.02229   0.07169   0.03349  -0.17793  -0.22818
  10        6PZ         0.04657   0.00017  -0.09577  -0.06579   0.05493
  11        7PX        -0.00208  -0.02506  -0.05591   0.12318  -0.03250
  12        7PY        -0.00963   0.00630   0.06224   0.03587   0.22320
  13        7PZ        -0.01730   0.00188  -0.01932  -0.01287   0.01029
  14        8D 0       -0.00109  -0.01604  -0.00008  -0.00567  -0.00718
  15        8D+1       -0.00940   0.00101   0.00263   0.00094  -0.00141
  16        8D-1        0.02228  -0.00182   0.01442   0.00630  -0.00383
  17        8D+2        0.00163   0.00661   0.01300  -0.00548   0.03010
  18        8D-2        0.00028  -0.00302   0.00481  -0.00231   0.01137
  19        9D 0        0.00014  -0.00948   0.00294  -0.01029  -0.01227
  20        9D+1       -0.01255   0.00030   0.01416   0.00567  -0.00281
  21        9D-1        0.01356  -0.00107   0.00763   0.00329  -0.00206
  22        9D+2       -0.00140  -0.03588  -0.03018   0.00476  -0.01259
  23        9D-2       -0.00856  -0.05088  -0.03453   0.08523   0.05612
  24 2   N  1S         -0.02653  -0.05747  -0.02391  -0.04314  -0.06552
  25        2S          0.01841   0.15493   0.06956   0.03303   0.16420
  26        3S          0.03692   0.31269   0.13358   0.00304   0.33671
  27        4S          0.02001   0.06481  -0.01309   0.01263   0.05591
  28        5PX        -0.01590  -0.26922  -0.06689   0.04599  -0.14927
  29        5PY         0.00287   0.02104   0.02186   0.01990   0.06754
  30        5PZ        -0.05267   0.00965   0.00386   0.01398  -0.03180
  31        6PX         0.00532   0.05875  -0.00843  -0.00754   0.05886
  32        6PY         0.00245   0.00911   0.01767   0.00184   0.03319
  33        6PZ        -0.03047   0.00589  -0.00687   0.00047  -0.01074
  34        7PX         0.01008   0.09880   0.05922  -0.10379   0.09370
  35        7PY         0.00151   0.00205   0.00484  -0.02064  -0.01564
  36        7PZ         0.00165   0.00052  -0.00569  -0.00414   0.00282
  37        8D 0       -0.00036  -0.00470  -0.00007  -0.00037   0.00303
  38        8D+1       -0.00822   0.00037   0.01461   0.01093  -0.01025
  39        8D-1        0.00154  -0.00013   0.00082   0.00025  -0.00006
  40        8D+2        0.00059   0.00583   0.00107  -0.00029  -0.00241
  41        8D-2        0.00011   0.00403   0.00331  -0.00259   0.00276
  42        9D 0       -0.00104  -0.01225   0.00469  -0.00079  -0.00059
  43        9D+1       -0.01821   0.00058   0.02545   0.01543  -0.01223
  44        9D-1        0.00196  -0.00015   0.00180   0.00079  -0.00058
  45        9D+2        0.00244   0.02502  -0.00093  -0.00366   0.00954
  46        9D-2       -0.00060  -0.01040   0.00009  -0.00253  -0.00818
  47 3   N  1S          0.02069   0.06715   0.04461  -0.03296   0.05336
  48        2S         -0.01169  -0.07677  -0.00006  -0.02343  -0.13749
  49        3S         -0.03167  -0.23532  -0.02423  -0.03452  -0.31098
  50        4S         -0.02437  -0.15796  -0.06538   0.07403  -0.20793
  51        5PX        -0.00670   0.07515   0.01677  -0.07173  -0.04050
  52        5PY         0.00119   0.03189   0.01650   0.01310   0.02471
  53        5PZ        -0.06963   0.00560   0.12119   0.09938  -0.10174
  54        6PX         0.00612   0.11932   0.02670  -0.03429   0.06972
  55        6PY        -0.00015   0.02254   0.00665   0.00753   0.00689
  56        6PZ        -0.02313   0.00164   0.06318   0.05421  -0.05496
  57        7PX         0.00361   0.01882   0.00843  -0.00549   0.03279
  58        7PY        -0.00088  -0.00020  -0.00425   0.00900  -0.00426
  59        7PZ        -0.00128  -0.00053   0.01798   0.01384  -0.01212
  60        8D 0       -0.00028   0.00210  -0.00007  -0.00251  -0.00174
  61        8D+1        0.00497  -0.00071  -0.00394  -0.00381   0.00484
  62        8D-1       -0.00018   0.00003   0.00028   0.00023  -0.00028
  63        8D+2        0.00051  -0.00401   0.00002   0.00435   0.00349
  64        8D-2       -0.00018  -0.00127  -0.00137  -0.00221  -0.00417
  65        9D 0        0.00083   0.00844   0.00155  -0.00158   0.00687
  66        9D+1       -0.00353   0.00004   0.00333   0.00134  -0.00058
  67        9D-1        0.00058  -0.00004   0.00047   0.00039  -0.00039
  68        9D+2       -0.00149  -0.01644  -0.00323   0.00058  -0.01439
  69        9D-2        0.00007  -0.00225  -0.00101   0.00023  -0.00197
  70 4   C  1S          0.00455   0.00282   0.09215  -0.18568   0.12320
  71        2S         -0.00362   0.06385  -0.11910   0.23086  -0.02718
  72        3S         -0.00278  -0.00788  -0.16418   0.29280  -0.06199
  73        4S          0.00588   0.06515  -0.24530   0.23304  -0.46806
  74        5PX         0.00160   0.12483  -0.00084  -0.07237  -0.18868
  75        5PY         0.01699   0.03254   0.09880  -0.18526   0.06589
  76        5PZ        -0.06608   0.00970  -0.25792  -0.12560   0.08804
  77        6PX         0.00291   0.05743  -0.01773  -0.09327  -0.22908
  78        6PY         0.01130  -0.00098   0.07681  -0.18903  -0.00526
  79        6PZ        -0.04772   0.00589  -0.13128  -0.06478   0.04579
  80        7PX        -0.00418   0.00098   0.03670  -0.01175   0.09933
  81        7PY         0.00294  -0.00343  -0.00533  -0.02534  -0.02439
  82        7PZ        -0.00639   0.00062  -0.01204  -0.00612   0.00446
  83        8D 0       -0.00088  -0.00247  -0.00174   0.00406  -0.00365
  84        8D+1        0.00645  -0.00055   0.01511   0.00516  -0.00273
  85        8D-1        0.00285   0.00024  -0.01682  -0.00932   0.00704
  86        8D+2       -0.00127  -0.00874  -0.00591   0.01572   0.00658
  87        8D-2        0.00031   0.01148   0.00155  -0.00798  -0.00779
  88        9D 0        0.00001   0.00037  -0.00026  -0.00209  -0.00059
  89        9D+1        0.00229  -0.00009  -0.00025   0.00008  -0.00029
  90        9D-1       -0.00067   0.00015  -0.00704  -0.00346   0.00250
  91        9D+2       -0.00205  -0.01186  -0.01419   0.03671   0.02039
  92        9D-2        0.00085  -0.00062  -0.00721   0.00409  -0.02892
  93 5   C  1S         -0.00211   0.02120   0.02809  -0.01455   0.00114
  94        2S          0.00268  -0.00400  -0.05823   0.06025  -0.03070
  95        3S          0.00779  -0.10333  -0.07627   0.08030  -0.01843
  96        4S         -0.03224  -0.11248   0.14909   0.27392   0.64276
  97        5PX        -0.00468  -0.07466  -0.03668   0.17845   0.19512
  98        5PY         0.00573   0.01757  -0.03991   0.14452  -0.01229
  99        5PZ        -0.07444   0.00835  -0.31165  -0.11662   0.06737
 100        6PX         0.00178   0.05938   0.04684  -0.10092  -0.07689
 101        6PY         0.00559  -0.04384  -0.03278  -0.01051  -0.04280
 102        6PZ        -0.06188   0.00612  -0.17988  -0.06698   0.03835
 103        7PX        -0.00445  -0.03095   0.04855  -0.03688   0.14871
 104        7PY        -0.00735  -0.02276   0.00130   0.08032   0.06014
 105        7PZ        -0.01596   0.00138  -0.01938  -0.00688   0.00358
 106        8D 0        0.00011  -0.00084   0.00179  -0.00323  -0.00001
 107        8D+1       -0.00541   0.00066  -0.00808  -0.00526   0.00415
 108        8D-1        0.00590  -0.00044  -0.00931  -0.00234   0.00089
 109        8D+2       -0.00054  -0.00516  -0.00269   0.01575   0.01243
 110        8D-2        0.00135   0.00102   0.00921  -0.02623   0.00011
 111        9D 0        0.00013  -0.00222  -0.00174   0.00386   0.00119
 112        9D+1       -0.00135   0.00012  -0.00218  -0.00115   0.00100
 113        9D-1       -0.00105  -0.00004  -0.00394  -0.00108   0.00059
 114        9D+2        0.00135   0.04054   0.01161  -0.06470  -0.07527
 115        9D-2        0.00098   0.02571   0.01246   0.02403   0.00233
 116 6   C  1S          0.00659   0.00176   0.04738  -0.06770   0.05804
 117        2S         -0.01027   0.03609  -0.01661   0.08372   0.03585
 118        3S         -0.02248   0.05143  -0.00533   0.08452   0.02650
 119        4S          0.06445   0.16994  -0.24280  -0.28960  -0.95714
 120        5PX         0.01471   0.09808  -0.05343  -0.05572  -0.19341
 121        5PY        -0.00611   0.02702   0.04104  -0.10989   0.06112
 122        5PZ         0.12059  -0.00973  -0.17883  -0.03769   0.00912
 123        6PX        -0.01492  -0.01313   0.01663   0.07901   0.12765
 124        6PY        -0.01687  -0.15451  -0.01907   0.06720   0.21369
 125        6PZ         0.05759  -0.00474  -0.09323  -0.01765   0.00182
 126        7PX         0.00687   0.01779  -0.04352  -0.02135  -0.14959
 127        7PY         0.00811   0.02817  -0.05186   0.04563  -0.15493
 128        7PZ        -0.00132   0.00001  -0.01167  -0.00230   0.00038
 129        8D 0       -0.00000  -0.00109   0.00093  -0.00170  -0.00064
 130        8D+1        0.00720  -0.00047  -0.00859  -0.00272   0.00139
 131        8D-1        0.02007  -0.00172   0.01498   0.00702  -0.00456
 132        8D+2       -0.00119  -0.01010   0.00216   0.01664   0.02825
 133        8D-2       -0.00047   0.00355   0.00248  -0.00569   0.00313
 134        9D 0       -0.00020   0.00278   0.00054  -0.00298  -0.00522
 135        9D+1        0.00370  -0.00033  -0.00010  -0.00034   0.00075
 136        9D-1        0.00621  -0.00048   0.00450   0.00211  -0.00146
 137        9D+2        0.00786   0.02987  -0.01552  -0.04879  -0.08330
 138        9D-2       -0.00175  -0.04428  -0.01882   0.04834   0.03695
 139 7   C  1S          0.00255  -0.01605   0.04214  -0.02196   0.02927
 140        2S          0.00613   0.09629  -0.04797   0.04474  -0.09203
 141        3S         -0.00771   0.00919  -0.09520   0.13826  -0.04921
 142        4S         -0.05280  -0.10768   0.30713   0.00976   0.94492
 143        5PX        -0.00265  -0.03329  -0.00501   0.13823   0.18134
 144        5PY         0.01163  -0.01991  -0.02223   0.04806  -0.10910
 145        5PZ         0.37606  -0.03019   0.03331   0.04234  -0.03488
 146        6PX        -0.01991  -0.16314  -0.09423   0.25396   0.11023
 147        6PY        -0.02007  -0.13648  -0.00547   0.14179   0.24531
 148        6PZ         0.21284  -0.01705   0.03461   0.03124  -0.02535
 149        7PX         0.00419   0.01709  -0.00807   0.01741  -0.03691
 150        7PY         0.01499   0.03708  -0.07209  -0.02514  -0.23886
 151        7PZ         0.02244  -0.00211   0.01492   0.00929  -0.00695
 152        8D 0       -0.00011  -0.00344   0.00165  -0.00371   0.00071
 153        8D+1        0.01829  -0.00130   0.00563   0.00110   0.00015
 154        8D-1       -0.00527   0.00040   0.00916   0.00224  -0.00080
 155        8D+2       -0.00044  -0.00212   0.00117   0.00791   0.01563
 156        8D-2       -0.00154  -0.00003   0.00791  -0.00372   0.01902
 157        9D 0       -0.00042  -0.00154   0.00161  -0.00017   0.00502
 158        9D+1        0.00537  -0.00027   0.00065  -0.00034   0.00045
 159        9D-1        0.00255  -0.00025   0.00381   0.00124  -0.00044
 160        9D+2       -0.00515  -0.02881  -0.02496   0.03619  -0.00017
 161        9D-2        0.00745   0.02634  -0.02032  -0.00272  -0.08807
 162 8   C  1S          0.01420  -0.06327   0.01512   0.00394   0.02812
 163        2S          0.00743   0.14048  -0.03730   0.08646   0.02516
 164        3S         -0.00556   0.02304  -0.09317   0.18911   0.08451
 165        4S          0.03131  -0.06811  -0.38520   0.15636  -0.88157
 166        5PX         0.00456   0.07989   0.00578  -0.10990  -0.12144
 167        5PY        -0.00398   0.02285   0.11423  -0.12410   0.10151
 168        5PZ         0.39406  -0.02854   0.04075   0.00927   0.00418
 169        6PX        -0.01880  -0.15958  -0.14443   0.24350   0.00525
 170        6PY         0.01914   0.04174   0.04949  -0.14761  -0.14245
 171        6PZ         0.21457  -0.01594   0.04548   0.01421  -0.00305
 172        7PX         0.00369   0.00673  -0.00804  -0.03968  -0.06726
 173        7PY        -0.01028  -0.01222   0.09378  -0.02502   0.24371
 174        7PZ         0.03606  -0.00290   0.02135   0.00865  -0.00482
 175        8D 0       -0.00060  -0.00668   0.00105  -0.00061   0.00110
 176        8D+1       -0.01639   0.00150  -0.00580  -0.00505   0.00418
 177        8D-1       -0.00703   0.00020   0.00917   0.00562  -0.00448
 178        8D+2       -0.00032  -0.00019  -0.00168   0.00726   0.00144
 179        8D-2       -0.00139  -0.00406   0.00665  -0.00854   0.01048
 180        9D 0       -0.00009  -0.00251  -0.00436   0.01155   0.00408
 181        9D+1        0.00381   0.00006  -0.00500  -0.00356   0.00288
 182        9D-1        0.00715  -0.00038   0.00216   0.00118  -0.00112
 183        9D+2        0.01062   0.07312   0.03916  -0.11548  -0.07289
 184        9D-2        0.00446  -0.00304  -0.00787  -0.01984  -0.05608
 185 9   H  1S          0.00177   0.02257   0.03016  -0.19446  -0.08838
 186        2S          0.00900   0.05247   0.05248  -0.38192  -0.22338
 187        3S         -0.00157  -0.00564   0.00582  -0.00115   0.01188
 188        4PX        -0.00017  -0.00068  -0.00129   0.00125   0.00146
 189        4PY         0.00008   0.00150  -0.00146  -0.00324  -0.00618
 190        4PZ        -0.00304   0.00032  -0.01066  -0.00399   0.00231
 191        5PX         0.00111   0.01760   0.00588  -0.04335  -0.04219
 192        5PY         0.00177   0.00939   0.00747  -0.06768  -0.04206
 193        5PZ        -0.00495   0.00036  -0.00767  -0.00279   0.00162
 194 10  H  1S         -0.01849  -0.07875   0.03603   0.11880   0.22244
 195        2S         -0.03663  -0.16027   0.08329   0.24770   0.49979
 196        3S          0.00146  -0.00385  -0.00666  -0.00198  -0.01950
 197        4PX        -0.00093  -0.00101   0.00042   0.00589   0.00633
 198        4PY        -0.00016   0.00067   0.00148  -0.00292   0.00233
 199        4PZ         0.00392  -0.00032  -0.00607  -0.00124   0.00023
 200        5PX        -0.00796  -0.03462   0.01640   0.05856   0.11206
 201        5PY        -0.00016  -0.00861  -0.00045   0.00792   0.01019
 202        5PZ         0.00281  -0.00022  -0.00300  -0.00039  -0.00033
 203 11  H  1S          0.01471   0.05605  -0.05657   0.00856  -0.24107
 204        2S          0.02770   0.06157  -0.12964   0.01509  -0.47698
 205        3S         -0.00211  -0.00480   0.00943   0.01008   0.02954
 206        4PX         0.00043   0.00214  -0.00174   0.00363  -0.00320
 207        4PY        -0.00047  -0.00461   0.00206   0.00094   0.00978
 208        4PZ         0.01330  -0.00109   0.00171   0.00177  -0.00142
 209        5PX         0.00220   0.00439  -0.01475  -0.00367  -0.05568
 210        5PY        -0.00619  -0.01251   0.02374  -0.00079   0.09228
 211        5PZ         0.00924  -0.00081   0.00393   0.00260  -0.00193
 212 12  H  1S          0.00264   0.13006   0.07649  -0.11593   0.04787
 213        2S         -0.00474   0.15718   0.18030  -0.23477   0.20151
 214        3S          0.00183   0.00310  -0.01540  -0.00817  -0.05315
 215        4PX        -0.00005  -0.00389  -0.00192   0.00019  -0.00422
 216        4PY        -0.00039  -0.00962  -0.00019   0.00047   0.00056
 217        4PZ         0.01399  -0.00101   0.00216   0.00063  -0.00005
 218        5PX        -0.00099  -0.02399  -0.02284   0.04664  -0.00415
 219        5PY         0.00265  -0.02493  -0.03471   0.03456  -0.05294
 220        5PZ         0.00631  -0.00062   0.00662   0.00280  -0.00153
                           6         7         8         9        10
     Eigenvalues --     2.00000   2.00000   2.00000   2.00000   2.00000
   1 1   C  1S         -0.03964  -0.70382   0.44084  -0.07894  -0.13158
   2        2S          0.01033  -0.10240  -0.06983   0.04792  -0.07637
   3        3S          0.00067  -0.07926  -0.19534  -0.08224   0.10762
   4        4S         -0.18745   0.27480   0.19799   0.03906   0.07928
   5        5PX        -0.02245  -0.00369   0.03557  -0.10782   0.20328
   6        5PY         0.04257   0.00764  -0.01163  -0.14810   0.08909
   7        5PZ         0.29721  -0.04260  -0.03339  -0.00082   0.03051
   8        6PX         0.01870   0.05504   0.06741  -0.00781  -0.07311
   9        6PY        -0.02203  -0.10895  -0.16888   0.09650  -0.07957
  10        6PZ         0.16977  -0.02399  -0.01721   0.00034   0.01732
  11        7PX         0.01701  -0.04168  -0.00979  -0.03633   0.04451
  12        7PY        -0.06476   0.13758   0.14982   0.05533  -0.04693
  13        7PZ         0.02798  -0.00449  -0.00339   0.00060   0.00325
  14        8D 0        0.00002   0.00220   0.00049   0.00120  -0.00204
  15        8D+1        0.00547   0.00021  -0.00178   0.00020  -0.00094
  16        8D-1        0.00527   0.00095   0.00022  -0.00039  -0.00120
  17        8D+2       -0.00328  -0.01475  -0.01692   0.00242   0.01054
  18        8D-2       -0.00597  -0.00621  -0.01629   0.00846  -0.00852
  19        9D 0       -0.00011  -0.01374  -0.00355  -0.00798   0.00333
  20        9D+1       -0.00110   0.00050   0.00160   0.00044  -0.00026
  21        9D-1        0.00319   0.00049   0.00013  -0.00022  -0.00057
  22        9D+2        0.01167  -0.00516  -0.02003   0.12433  -0.14586
  23        9D-2        0.03571   0.03147   0.06658  -0.04101   0.08375
  24 2   N  1S         -0.02298  -0.01370   0.01277  -0.04494  -0.03496
  25        2S         -0.03467  -0.06807  -0.04897  -0.04883   0.13823
  26        3S         -0.04451  -0.10490  -0.04864  -0.11738   0.16513
  27        4S          0.02644  -0.08290  -0.11059  -0.00476  -0.06695
  28        5PX         0.00744   0.05910   0.05162   0.03717  -0.09871
  29        5PY        -0.08604  -0.07932  -0.20326  -0.05686  -0.12862
  30        5PZ         0.00143   0.01231  -0.02560  -0.00036  -0.02116
  31        6PX         0.01399   0.02016   0.03026   0.03103  -0.12235
  32        6PY        -0.05376  -0.05133  -0.12687  -0.01770  -0.08747
  33        6PZ         0.02168   0.00374  -0.01574   0.00007  -0.00940
  34        7PX        -0.00283  -0.01050  -0.02207  -0.00054  -0.02412
  35        7PY        -0.00319  -0.01533  -0.02723   0.00323  -0.02865
  36        7PZ         0.01581  -0.00137  -0.00268   0.00005   0.00029
  37        8D 0        0.00050   0.00037   0.00228   0.00091  -0.00482
  38        8D+1       -0.02771   0.00447   0.00148  -0.00012  -0.00380
  39        8D-1        0.00086  -0.00003   0.00001  -0.00002  -0.00000
  40        8D+2       -0.00144  -0.00268  -0.00761   0.00049   0.00531
  41        8D-2       -0.00633  -0.00281  -0.00758  -0.00125  -0.01095
  42        9D 0       -0.00311  -0.00184   0.00356  -0.01248   0.02005
  43        9D+1       -0.03169   0.00490   0.00341   0.00020  -0.00375
  44        9D-1        0.00115   0.00014  -0.00017  -0.00003  -0.00025
  45        9D+2        0.00318   0.00125  -0.00912   0.01884  -0.02334
  46        9D-2       -0.00110  -0.00144  -0.00100   0.00764  -0.00759
  47 3   N  1S         -0.05916  -0.14922   0.16303  -0.12403   0.00553
  48        2S         -0.02111  -0.03126  -0.13549   0.06976   0.11900
  49        3S         -0.02471  -0.01696  -0.17081   0.06619   0.22094
  50        4S         -0.00779   0.04100   0.03376   0.01953   0.07728
  51        5PX        -0.00413  -0.02761  -0.11123   0.03908   0.05462
  52        5PY        -0.07803  -0.04724  -0.13055  -0.06308  -0.12326
  53        5PZ        -0.25329   0.04464   0.00369  -0.00192  -0.04166
  54        6PX        -0.00319  -0.02515  -0.04934   0.02082  -0.00599
  55        6PY        -0.03709  -0.01435  -0.04921  -0.04147  -0.04650
  56        6PZ        -0.15149   0.02485   0.00473  -0.00142  -0.02214
  57        7PX         0.00064  -0.00863  -0.01260   0.00052  -0.01050
  58        7PY        -0.00032   0.00400   0.00729  -0.00591   0.00687
  59        7PZ        -0.04089   0.00558   0.00375  -0.00037  -0.00403
  60        8D 0        0.00045  -0.00024  -0.00240   0.00105   0.00019
  61        8D+1        0.00785  -0.00204   0.00125   0.00008   0.00241
  62        8D-1       -0.00042   0.00012  -0.00004   0.00000  -0.00012
  63        8D+2       -0.00003   0.00071   0.00547  -0.00120   0.00006
  64        8D-2        0.00692   0.00555   0.01419   0.00540   0.01050
  65        9D 0        0.00020  -0.00064   0.00255   0.00004  -0.00468
  66        9D+1       -0.00100   0.00010   0.00058   0.00010   0.00009
  67        9D-1       -0.00094   0.00017   0.00003  -0.00002  -0.00017
  68        9D+2        0.00060   0.00124  -0.00369   0.00315   0.00497
  69        9D-2        0.00174  -0.00057   0.00066   0.00312  -0.00169
  70 4   C  1S          0.01965  -0.19727   0.34519   0.42080   0.17761
  71        2S          0.03824   0.02378   0.06630   0.03356  -0.02871
  72        3S          0.02363   0.02028  -0.09752   0.08288  -0.26459
  73        4S          0.09366  -0.03010   0.01962  -0.14346   0.11710
  74        5PX        -0.00925   0.06054   0.13912  -0.10734   0.07420
  75        5PY        -0.04612  -0.09304  -0.14679   0.25316  -0.19380
  76        5PZ         0.04622  -0.02749  -0.01125   0.00072   0.02760
  77        6PX         0.00746  -0.01240   0.09590   0.05967  -0.00970
  78        6PY        -0.03996  -0.07719  -0.15725   0.18716  -0.28852
  79        6PZ         0.02705  -0.01458  -0.00597   0.00069   0.01453
  80        7PX        -0.03356   0.08327   0.09799   0.05210  -0.07790
  81        7PY         0.00305   0.01203   0.01011   0.03009  -0.09073
  82        7PZ         0.00199  -0.00148  -0.00020   0.00012   0.00157
  83        8D 0        0.00012   0.00443   0.00781  -0.00992   0.01027
  84        8D+1        0.01441   0.00006  -0.00097   0.00008  -0.00087
  85        8D-1        0.01282  -0.00261  -0.00162  -0.00001   0.00217
  86        8D+2        0.00295   0.00306   0.00383  -0.01067   0.00814
  87        8D-2        0.00095   0.00199   0.00441  -0.01327  -0.00045
  88        9D 0        0.00064   0.00116   0.00424   0.00459  -0.00349
  89        9D+1       -0.00022   0.00013  -0.00018  -0.00005  -0.00016
  90        9D-1        0.00140  -0.00079  -0.00021  -0.00000   0.00085
  91        9D+2        0.01174   0.01209   0.00997  -0.03950   0.03896
  92        9D-2        0.00155  -0.01192   0.00871   0.02914   0.02974
  93 5   C  1S          0.02960   0.21056  -0.07560   0.27536   0.06963
  94        2S          0.02633  -0.01245  -0.04560   0.03406  -0.08409
  95        3S          0.01084  -0.04531  -0.03163   0.13570  -0.09263
  96        4S         -0.16004   0.06731   0.12289   0.18469   0.18899
  97        5PX         0.01932  -0.01779  -0.07273   0.11383  -0.04380
  98        5PY        -0.03627  -0.00411   0.03498   0.22088   0.12222
  99        5PZ        -0.21063  -0.00822   0.01181  -0.00217   0.02116
 100        6PX        -0.01859  -0.05746   0.03196   0.07286   0.06974
 101        6PY         0.01873   0.00799  -0.01635  -0.04577  -0.01502
 102        6PZ        -0.12585  -0.00444   0.00688  -0.00091   0.01189
 103        7PX        -0.02648   0.08227   0.07682   0.02336  -0.15211
 104        7PY        -0.01490  -0.02392  -0.01202  -0.03770   0.11169
 105        7PZ        -0.01527  -0.00035   0.00043   0.00004   0.00122
 106        8D 0       -0.00051   0.00002  -0.00005  -0.00115   0.00376
 107        8D+1        0.01091  -0.00178  -0.00128   0.00019   0.00132
 108        8D-1       -0.01389   0.00054   0.00121  -0.00032   0.00027
 109        8D+2       -0.00061  -0.00458  -0.00701   0.00313   0.00356
 110        8D-2       -0.00022  -0.00520  -0.01221   0.00560  -0.02181
 111        9D 0        0.00105  -0.00206  -0.00695  -0.00097   0.00193
 112        9D+1        0.00092  -0.00038  -0.00003   0.00008   0.00045
 113        9D-1       -0.00733   0.00017   0.00092  -0.00005   0.00021
 114        9D+2       -0.00157   0.00270   0.03617  -0.00232   0.00061
 115        9D-2       -0.02148  -0.01474   0.02396   0.06230   0.11118
 116 6   C  1S         -0.02274   0.16496  -0.05416   0.05083   0.12285
 117        2S         -0.00699   0.03963   0.07312  -0.00144   0.01992
 118        3S         -0.01650   0.11493   0.28458   0.03118   0.11063
 119        4S          0.19594  -0.19764  -0.23198   0.07637  -0.28743
 120        5PX         0.03181   0.08808   0.10001   0.09238  -0.09498
 121        5PY         0.03789   0.06124   0.02808  -0.07665  -0.15857
 122        5PZ        -0.32355   0.01548   0.02841  -0.00713   0.00237
 123        6PX        -0.01664   0.03743   0.07217  -0.01254   0.03182
 124        6PY         0.02749   0.09279   0.04515  -0.13944  -0.15627
 125        6PZ        -0.18373   0.00965   0.01569  -0.00376   0.00005
 126        7PX         0.03351  -0.04619  -0.04303  -0.01881   0.00080
 127        7PY         0.02461  -0.10912  -0.10458   0.03230   0.13007
 128        7PZ        -0.02394   0.00121   0.00205  -0.00023   0.00011
 129        8D 0       -0.00053   0.00201   0.00228  -0.00061   0.00330
 130        8D+1       -0.00865   0.00012   0.00077  -0.00031   0.00044
 131        8D-1        0.00124   0.00134   0.00059  -0.00035  -0.00142
 132        8D+2       -0.00330  -0.00148  -0.00376   0.00485   0.00263
 133        8D-2        0.00175   0.00469   0.00442  -0.01073  -0.00999
 134        9D 0       -0.00120   0.00709   0.00924   0.00236   0.00799
 135        9D+1        0.00355  -0.00033  -0.00031  -0.00014   0.00029
 136        9D-1       -0.00013   0.00044   0.00018  -0.00010  -0.00048
 137        9D+2        0.01776   0.01926   0.00237   0.02880  -0.06865
 138        9D-2       -0.00074   0.00993   0.00286  -0.00773   0.00355
 139 7   C  1S          0.00197  -0.05090  -0.07179  -0.21566   0.02815
 140        2S          0.02900  -0.05442  -0.05895  -0.00574  -0.07585
 141        3S          0.07120  -0.01413   0.02751   0.02367  -0.10184
 142        4S         -0.19496   0.43732   0.46809  -0.07470  -0.08083
 143        5PX        -0.02170  -0.00914  -0.01426  -0.01515  -0.07460
 144        5PY        -0.02975  -0.15838  -0.16125   0.08174   0.19039
 145        5PZ        -0.16369   0.02113   0.02346  -0.01002  -0.01090
 146        6PX         0.02890  -0.03715   0.00878  -0.05208   0.08063
 147        6PY        -0.00450   0.04847   0.04781  -0.05775  -0.01000
 148        6PZ        -0.09437   0.01367   0.01353  -0.00553  -0.00815
 149        7PX        -0.00458  -0.02381  -0.01483   0.03354   0.05957
 150        7PY         0.04646  -0.08653  -0.09079   0.02176  -0.00674
 151        7PZ        -0.01537   0.00305   0.00209  -0.00064  -0.00241
 152        8D 0       -0.00028   0.00124   0.00031  -0.00142   0.00196
 153        8D+1        0.01331  -0.00062  -0.00074  -0.00025   0.00010
 154        8D-1        0.01444  -0.00060  -0.00126   0.00032  -0.00021
 155        8D+2       -0.00126  -0.00284  -0.00502  -0.00562  -0.00506
 156        8D-2       -0.00338   0.00924   0.01051  -0.00183  -0.00761
 157        9D 0        0.00077  -0.00216  -0.00254  -0.00526  -0.00323
 158        9D+1        0.00490  -0.00036  -0.00041  -0.00007   0.00011
 159        9D-1        0.00550  -0.00000  -0.00054  -0.00007  -0.00032
 160        9D+2        0.01395   0.01252   0.02099  -0.00064   0.00402
 161        9D-2        0.01018  -0.05592  -0.07137   0.03734   0.02554
 162 8   C  1S          0.00815   0.05478   0.01317   0.17450   0.00010
 163        2S          0.00120   0.03864   0.04136   0.00187  -0.10830
 164        3S          0.05424   0.04842   0.08293  -0.06871  -0.08437
 165        4S          0.24860  -0.46416  -0.46759  -0.11911   0.02464
 166        5PX         0.00760   0.08366   0.09636   0.00091   0.06137
 167        5PY        -0.07170   0.06266   0.08947   0.09509   0.01847
 168        5PZ         0.11852  -0.00465  -0.00253  -0.00751   0.00166
 169        6PX         0.06237  -0.00237   0.04461   0.02319  -0.00532
 170        6PY        -0.03775  -0.09626  -0.14667   0.06352  -0.01033
 171        6PZ         0.07216  -0.00142  -0.00087  -0.00386  -0.00055
 172        7PX         0.01338  -0.00992  -0.00914  -0.01500   0.01823
 173        7PY        -0.05203   0.08909   0.07934  -0.00281  -0.00981
 174        7PZ         0.01221   0.00087   0.00027  -0.00057  -0.00131
 175        8D 0       -0.00028   0.00061   0.00220  -0.00196   0.00516
 176        8D+1        0.01651  -0.00215  -0.00206   0.00051   0.00130
 177        8D-1       -0.01186   0.00179   0.00129   0.00008  -0.00135
 178        8D+2        0.00087  -0.00235   0.00077  -0.00582   0.00668
 179        8D-2       -0.00254   0.01197   0.01408   0.00188  -0.01443
 180        9D 0        0.00074   0.00303   0.00177   0.00397   0.00479
 181        9D+1        0.01246  -0.00131  -0.00166  -0.00002   0.00066
 182        9D-1       -0.00013   0.00044  -0.00007  -0.00014  -0.00046
 183        9D+2       -0.02477  -0.00154  -0.02264   0.03684  -0.03368
 184        9D-2        0.01708  -0.04144  -0.06381  -0.03048   0.03187
 185 9   H  1S          0.02876  -0.00290  -0.02940  -0.17019  -0.15998
 186        2S          0.05168   0.02536  -0.01222  -0.21723  -0.26027
 187        3S         -0.00500   0.00193   0.00343  -0.01396  -0.00861
 188        4PX         0.00152  -0.00027  -0.00166  -0.00452  -0.00387
 189        4PY         0.00134  -0.00045  -0.00018  -0.00669  -0.00383
 190        4PZ        -0.00731  -0.00028   0.00042  -0.00006   0.00073
 191        5PX         0.00263   0.00588   0.01526  -0.02112  -0.00230
 192        5PY         0.01148   0.00953   0.00095  -0.03934  -0.04817
 193        5PZ        -0.00715  -0.00016   0.00063   0.00004   0.00058
 194 10  H  1S         -0.03440  -0.06496  -0.05788  -0.05936   0.08219
 195        2S         -0.07450  -0.05768  -0.04645  -0.09122   0.17553
 196        3S          0.00650  -0.01987  -0.02062   0.00052  -0.00313
 197        4PX        -0.00124  -0.00149   0.00070  -0.00356   0.00375
 198        4PY         0.00054   0.00136   0.00057  -0.00157  -0.00382
 199        4PZ        -0.01139   0.00057   0.00100  -0.00023   0.00005
 200        5PX        -0.01510  -0.00796  -0.00702  -0.02189   0.03365
 201        5PY        -0.00346  -0.00064   0.00018   0.00088   0.00525
 202        5PZ        -0.00790   0.00049   0.00074  -0.00014  -0.00013
 203 11  H  1S          0.01025  -0.14199  -0.14245   0.07429   0.13410
 204        2S          0.04626  -0.22989  -0.23035   0.11292   0.24282
 205        3S         -0.01031   0.01328   0.01891  -0.00228   0.02476
 206        4PX        -0.00030  -0.00541  -0.00579   0.00193   0.00227
 207        4PY        -0.00100   0.00444   0.00453  -0.00175  -0.00129
 208        4PZ        -0.00605   0.00082   0.00088  -0.00036  -0.00045
 209        5PX         0.00713  -0.01650  -0.01515   0.00685   0.02684
 210        5PY        -0.00754   0.04527   0.04544  -0.02011  -0.04706
 211        5PZ        -0.00581   0.00093   0.00096  -0.00023  -0.00060
 212 12  H  1S         -0.04965   0.11299   0.13658   0.08252  -0.05741
 213        2S         -0.09644   0.23045   0.26528   0.09297  -0.10985
 214        3S          0.01112  -0.01671  -0.01744   0.00776  -0.01393
 215        4PX         0.00151  -0.00139  -0.00263  -0.00229   0.00218
 216        4PY         0.00102  -0.00474  -0.00572  -0.00114   0.00178
 217        4PZ         0.00435  -0.00011  -0.00008  -0.00026  -0.00001
 218        5PX         0.00899  -0.02362  -0.02186  -0.00689   0.01662
 219        5PY         0.01771  -0.04761  -0.05838  -0.00462   0.01435
 220        5PZ         0.00136   0.00044   0.00044  -0.00007  -0.00042
                          11        12        13        14        15
     Eigenvalues --     2.00000   2.00000   2.00000   2.00000   2.00000
   1 1   C  1S         -0.09329  -0.16136  -0.03803   0.30639  -0.03424
   2        2S         -0.02542   0.05950  -0.02536   0.03319   0.10407
   3        3S          0.05350   0.16562  -0.10161   0.00261   0.21945
   4        4S         -0.23957  -0.12278   0.16492   0.25385  -0.34335
   5        5PX         0.00185  -0.02400   0.04222   0.04332  -0.04959
   6        5PY         0.05233   0.04062   0.17228   0.16524  -0.12223
   7        5PZ        -0.02703  -0.05378   0.05790  -0.00428   0.00848
   8        6PX        -0.06586  -0.05117   0.14635   0.06988  -0.10270
   9        6PY        -0.02507   0.04669  -0.23300  -0.28170   0.35526
  10        6PZ        -0.01316  -0.03168   0.01788  -0.00890  -0.00030
  11        7PX         0.05628   0.01630  -0.07385  -0.01824  -0.00728
  12        7PY        -0.12747  -0.11208   0.03120   0.00783  -0.17173
  13        7PZ        -0.00245  -0.00550   0.00226  -0.00214  -0.00019
  14        8D 0        0.00211   0.00005   0.00039  -0.00438  -0.00052
  15        8D+1       -0.00137   0.00067   0.00855   0.00270   0.00239
  16        8D-1        0.00035   0.00027   0.00084   0.00015  -0.00016
  17        8D+2       -0.00125   0.00417  -0.00089   0.00782  -0.00520
  18        8D-2       -0.00033  -0.00705   0.00400  -0.00041  -0.01103
  19        9D 0        0.00788   0.00570  -0.01186  -0.00161   0.01096
  20        9D+1        0.00189  -0.00046  -0.01142  -0.00465  -0.00376
  21        9D-1        0.00012   0.00010   0.00063   0.00015  -0.00003
  22        9D+2       -0.04958  -0.02238   0.09829  -0.00912  -0.03176
  23        9D-2       -0.00502   0.01771   0.09050   0.14294  -0.10350
  24 2   N  1S          0.11957  -0.05234  -0.13229   0.03854  -0.06903
  25        2S          0.04809  -0.00373  -0.15844   0.00758   0.02543
  26        3S          0.02580  -0.00158  -0.05308   0.04604  -0.03510
  27        4S         -0.00446   0.04223   0.11051  -0.02082   0.06734
  28        5PX         0.06782  -0.03168  -0.16051  -0.11120   0.04469
  29        5PY         0.11969  -0.13558   0.19057  -0.12222  -0.07212
  30        5PZ        -0.02374   0.02780   0.17969   0.07025   0.05597
  31        6PX        -0.05492  -0.03675   0.14959   0.02113  -0.08202
  32        6PY         0.06892  -0.07697   0.07835  -0.09341  -0.02175
  33        6PZ        -0.01422   0.01096   0.09723   0.03589   0.02935
  34        7PX        -0.05049  -0.00184   0.14507   0.05659  -0.03634
  35        7PY         0.01764   0.00610  -0.02097  -0.02960   0.02756
  36        7PZ        -0.00225  -0.00149   0.00992   0.00239   0.00243
  37        8D 0       -0.00229  -0.00116   0.00697   0.00077  -0.00404
  38        8D+1        0.00088   0.00655   0.00652   0.00520   0.00300
  39        8D-1        0.00005  -0.00015  -0.00032  -0.00021  -0.00015
  40        8D+2        0.00358   0.00202  -0.01038  -0.00117   0.00618
  41        8D-2        0.00651  -0.01029   0.00550  -0.01623   0.00271
  42        9D 0        0.00920   0.00206  -0.02192  -0.00092   0.00429
  43        9D+1        0.00288   0.00617  -0.00550   0.00064  -0.00082
  44        9D-1       -0.00011   0.00011   0.00110   0.00034   0.00028
  45        9D+2       -0.01523   0.00101   0.02420   0.00634  -0.00821
  46        9D-2        0.00223  -0.00291  -0.01982  -0.02340   0.02428
  47 3   N  1S          0.18420  -0.36795  -0.02325  -0.08401   0.00470
  48        2S          0.04240   0.01344  -0.17664   0.01445   0.09339
  49        3S          0.08399   0.07149  -0.30370  -0.00379   0.18434
  50        4S          0.05894  -0.00183  -0.20726  -0.04743   0.04393
  51        5PX        -0.05766   0.03088   0.14856   0.09076  -0.01127
  52        5PY         0.11957  -0.13704   0.12602  -0.17918  -0.00519
  53        5PZ        -0.00176   0.06987   0.13143   0.07612   0.04977
  54        6PX        -0.04881  -0.00683   0.12638   0.06199  -0.04856
  55        6PY         0.05792  -0.06642   0.06960  -0.07655  -0.01188
  56        6PZ         0.00095   0.03844   0.06200   0.03923   0.02468
  57        7PX        -0.00736   0.00154   0.02342   0.00527  -0.00213
  58        7PY         0.00291  -0.00639   0.00459  -0.00318  -0.00211
  59        7PZ         0.00261   0.00777  -0.00071   0.00375   0.00123
  60        8D 0       -0.00268   0.00143   0.00731   0.00327  -0.00115
  61        8D+1        0.00132  -0.00365  -0.01363  -0.00611  -0.00451
  62        8D-1       -0.00007   0.00021   0.00065   0.00032   0.00023
  63        8D+2        0.00354  -0.00124  -0.01372  -0.00447   0.00202
  64        8D-2       -0.01070   0.01163  -0.01302   0.01253   0.00373
  65        9D 0       -0.00284  -0.00267   0.00822   0.00209  -0.00493
  66        9D+1        0.00064  -0.00016  -0.00390  -0.00150  -0.00119
  67        9D-1       -0.00000   0.00026   0.00049   0.00029   0.00021
  68        9D+2        0.00290   0.00546  -0.01348  -0.00354   0.00996
  69        9D-2       -0.00131   0.00207  -0.00675  -0.00367   0.00718
  70 4   C  1S          0.50371   0.34554   0.24224  -0.29705  -0.03184
  71        2S          0.01965   0.01776  -0.05247  -0.04336   0.09048
  72        3S         -0.10503  -0.05466  -0.14654  -0.10676   0.22657
  73        4S          0.07284  -0.05184   0.13148  -0.08691   0.07058
  74        5PX         0.03551  -0.06832   0.01619  -0.16838   0.14645
  75        5PY        -0.08725   0.01299  -0.12182  -0.05229   0.03692
  76        5PZ        -0.01249  -0.02501   0.00787  -0.00220   0.00426
  77        6PX         0.01024  -0.03158   0.03338  -0.23126   0.15444
  78        6PY        -0.06764   0.02712  -0.17538  -0.14789   0.13679
  79        6PZ        -0.00630  -0.01360   0.00134  -0.00268   0.00126
  80        7PX        -0.07075  -0.06170  -0.01046  -0.03697  -0.04743
  81        7PY        -0.01255  -0.00513  -0.02252  -0.02100  -0.01326
  82        7PZ        -0.00020  -0.00154  -0.00250  -0.00128  -0.00068
  83        8D 0        0.00258  -0.00527   0.00737  -0.00135   0.00218
[...]
   D14        3.14146   0.00000   0.00000   0.00013   0.00013  -3.14159
   D15        3.14156   0.00000   0.00000   0.00004   0.00004   3.14159
   D16       -0.00016   0.00000   0.00000   0.00016   0.00016   0.00000
   D17       -0.00009   0.00000   0.00000   0.00009   0.00009   0.00000
   D18        3.14142   0.00000   0.00000   0.00017   0.00017  -3.14159
   D19       -3.14156  -0.00000   0.00000  -0.00004  -0.00004   3.14159
   D20       -0.00005   0.00000   0.00000   0.00005   0.00005  -0.00000
         Item               Value     Threshold  Converged?
 Maximum Force            0.000089     0.000450     YES
 RMS     Force            0.000020     0.000300     YES
 Maximum Displacement     0.001826     0.001800     NO 
 RMS     Displacement     0.000331     0.001200     YES
 Predicted change in Energy=-7.950295D-08
                           ----------------------------
                           ! Non-Optimized Parameters !
                           ! (Angstroms and Degrees)  !
 --------------------------                            --------------------------
 ! Name  Definition              Value          Derivative Info.                !
 --------------------------------------------------------------------------------
 ! R1    R(1,2)                  1.3958         -DE/DX =    0.0                 !
 ! R2    R(1,4)                  1.4076         -DE/DX =    0.0                 !
 ! R3    R(1,8)                  1.4234         -DE/DX =    0.0                 !
 ! R4    R(2,3)                  1.1176         -DE/DX =    0.0                 !
 ! R5    R(4,5)                  1.4274         -DE/DX =    0.0                 !
 ! R6    R(5,6)                  1.3938         -DE/DX =    0.0                 !
 ! R7    R(5,9)                  1.0945         -DE/DX =    0.0                 !
 ! R8    R(6,7)                  1.419          -DE/DX =    0.0                 !
 ! R9    R(6,10)                 1.0933         -DE/DX =    0.0001              !
 ! R10   R(7,8)                  1.3792         -DE/DX =    0.0                 !
 ! R11   R(7,11)                 1.0895         -DE/DX =    0.0                 !
 ! R12   R(8,12)                 1.0909         -DE/DX =    0.0                 !
 ! A1    A(2,1,4)              112.5113         -DE/DX =    0.0                 !
 ! A2    A(2,1,8)              116.5209         -DE/DX =    0.0                 !
 ! A3    A(4,1,8)              130.9679         -DE/DX =    0.0                 !
 ! A4    A(1,4,5)              109.2224         -DE/DX =    0.0                 !
 ! A5    A(4,5,6)              123.8576         -DE/DX =    0.0                 !
 ! A6    A(4,5,9)              118.5065         -DE/DX =    0.0                 !
 ! A7    A(6,5,9)              117.6359         -DE/DX =    0.0                 !
 ! A8    A(5,6,7)              121.7791         -DE/DX =    0.0                 !
 ! A9    A(5,6,10)             119.8504         -DE/DX =    0.0                 !
 ! A10   A(7,6,10)             118.3705         -DE/DX =    0.0                 !
 ! A11   A(6,7,8)              119.108          -DE/DX =    0.0                 !
 ! A12   A(6,7,11)             120.4844         -DE/DX =    0.0                 !
 ! A13   A(8,7,11)             120.4076         -DE/DX =    0.0                 !
 ! A14   A(1,8,7)              115.0651         -DE/DX =    0.0                 !
 ! A15   A(1,8,12)             122.5239         -DE/DX =    0.0                 !
 ! A16   A(7,8,12)             122.411          -DE/DX =    0.0                 !
 ! A17   L(1,2,3,12,-1)        183.5497         -DE/DX =    0.0001              !
 ! A18   L(1,2,3,12,-2)        180.0            -DE/DX =    0.0                 !
 ! D1    D(2,1,4,5)           -180.0            -DE/DX =    0.0                 !
 ! D2    D(8,1,4,5)              0.0            -DE/DX =    0.0                 !
 ! D3    D(2,1,8,7)           -180.0            -DE/DX =    0.0                 !
 ! D4    D(2,1,8,12)             0.0            -DE/DX =    0.0                 !
 ! D5    D(4,1,8,7)              0.0            -DE/DX =    0.0                 !
 ! D6    D(4,1,8,12)           180.0            -DE/DX =    0.0                 !
 ! D7    D(1,4,5,6)              0.0            -DE/DX =    0.0                 !
 ! D8    D(1,4,5,9)            180.0            -DE/DX =    0.0                 !
 ! D9    D(4,5,6,7)              0.0            -DE/DX =    0.0                 !
 ! D10   D(4,5,6,10)          -180.0            -DE/DX =    0.0                 !
 ! D11   D(9,5,6,7)            180.0            -DE/DX =    0.0                 !
 ! D12   D(9,5,6,10)             0.0            -DE/DX =    0.0                 !
 ! D13   D(5,6,7,8)              0.0            -DE/DX =    0.0                 !
 ! D14   D(5,6,7,11)          -180.0            -DE/DX =    0.0                 !
 ! D15   D(10,6,7,8)           180.0            -DE/DX =    0.0                 !
 ! D16   D(10,6,7,11)            0.0            -DE/DX =    0.0                 !
 ! D17   D(6,7,8,1)              0.0            -DE/DX =    0.0                 !
 ! D18   D(6,7,8,12)          -180.0            -DE/DX =    0.0                 !
 ! D19   D(11,7,8,1)           180.0            -DE/DX =    0.0                 !
 ! D20   D(11,7,8,12)            0.0            -DE/DX =    0.0                 !
 --------------------------------------------------------------------------------
 GradGradGradGradGradGradGradGradGradGradGradGradGradGradGradGradGradGrad

 Leave Link  103 at Sat Nov  5 23:06:48 2016, MaxMem=   524288000 cpu:               0.0 elap:               0.0
 (Enter /home/ubuntu/g16/l9999.exe)

 ----------------------------------------------------------------------

 Electric dipole moment (input orientation):
 (Debye = 10**-18 statcoulomb cm , SI units = C m)
                  (au)            (Debye)         (10**-30 SI)
   Tot        0.148993D+01      0.378702D+01      0.126322D+02
   x          0.101233D+00      0.257309D+00      0.858291D+00
   y         -0.148648D+01     -0.377827D+01     -0.126029D+02
   z          0.244385D-02      0.621163D-02      0.207198D-01

 Dipole polarizability, Alpha (input orientation).
 (esu units = cm**3 , SI units = C**2 m**2 J**-1)
 Alpha(0;0):
               (au)            (10**-24 esu)      (10**-40 SI)
   iso        0.945183D+02      0.140062D+02      0.155840D+02
   aniso      0.744179D+02      0.110276D+02      0.122698D+02
   xx         0.137654D+03      0.203982D+02      0.226961D+02
   yx         0.374883D+01      0.555519D+00      0.618099D+00
   yy         0.936409D+02      0.138762D+02      0.154393D+02
   zx         0.288169D+01      0.427022D+00      0.475127D+00
   zy         0.150477D+00      0.222984D-01      0.248103D-01
   zz         0.522598D+02      0.774410D+01      0.861648D+01

 ----------------------------------------------------------------------

 Dipole orientation:
     6         -2.30812108         -0.26881604          0.58697067
     7         -4.93073064         -0.53617170          0.66588884
     7         -7.03082749         -0.75062992          0.60055448
     6         -1.36822593         -0.17303174         -1.89970786
     6          1.31441247          0.10030321         -1.82517544
     6          2.71378174          0.24328213          0.40167426
     6          1.54670469          0.12443287          2.81302715
     6         -1.04206689         -0.13965627          2.95686740
     1          2.34607220          0.20551127         -3.61476246
     1          4.76713525          0.45282176          0.31464738
     1          2.67939953          0.23992014          4.52848755
     1         -2.04378049         -0.24198970          4.75576898

 Electric dipole moment (dipole orientation):
 (Debye = 10**-18 statcoulomb cm , SI units = C m)
                  (au)            (Debye)         (10**-30 SI)
   Tot        0.148993D+01      0.378702D+01      0.126322D+02
   x          0.000000D+00      0.000000D+00      0.000000D+00
   y          0.000000D+00      0.000000D+00      0.000000D+00
   z          0.148993D+01      0.378702D+01      0.126322D+02

 Dipole polarizability, Alpha (dipole orientation).
 (esu units = cm**3 , SI units = C**2 m**2 J**-1)
 Alpha(0;0):
               (au)            (10**-24 esu)      (10**-40 SI)
   iso        0.945183D+02      0.140062D+02      0.155840D+02
   aniso      0.744179D+02      0.110276D+02      0.122698D+02
   xx         0.137172D+03      0.203268D+02      0.226166D+02
   yx         0.866920D+01      0.128464D+01      0.142936D+01
   yy         0.530467D+02      0.786071D+01      0.874622D+01
   zx        -0.722762D+00     -0.107102D+00     -0.119167D+00
   zy        -0.709797D-01     -0.105181D-01     -0.117030D-01
   zz         0.933359D+02      0.138310D+02      0.153890D+02

 ----------------------------------------------------------------------
 1\1\GINC-LC06-2-7\Freq\UB3LYP\Aug-CC-pVDZ\C6H4N2\UBUNTU\05-Nov-2016\0\
 \#P Geom=AllCheck Guess=TCheck SCRF=Check GenChk UB3LYP/Aug-CC-pVDZ Fr
 eq\\s-C6H4N2_UB3LYP-aug-cc-pVDZ\\0,1\C,-1.2042982944,-0.3934431196,-0.
 058424562\N,-2.5924644034,-0.5299160567,-0.1052116807\N,-3.7086952428,
 -0.5713426407,-0.1429835185\C,-0.7951976157,0.9533850504,-0.0438071555
 \C,0.630319417,1.0110127847,0.004111607\C,1.452607503,-0.1140720254,0.
 0312164617\C,0.9203070741,-1.4293441038,0.0125247549\C,-0.4475840201,-
 1.5988702456,-0.0336980821\H,1.113157392,1.9931265099,0.0210099915\H,2
 .5385625554,0.006103936,0.067939924\H,1.5827560031,-2.2940804285,0.034
 2596804\H,-0.9142103682,-2.5848196607,-0.0501474205\\Version=ES64L-G16
 RevA.03\State=1-A\HF=-340.4407965\S2=0.\S2-1=0.\S2A=0.\RMSD=2.125e-09\
 RMSF=2.986e-05\ZeroPoint=0.0840034\Thermal=0.0903027\Dipole=0.1012333,
 -1.4864846,0.0024438\DipoleDeriv=-0.8993421,0.1473664,-0.0333309,-0.23
 99883,0.2207061,-0.0080409,-0.03367,0.0048945,0.0935063,2.3463021,0.25
 34328,0.075358,0.2661651,0.1459233,0.0090109,0.0755776,0.008729,0.1125
 172,-1.3639673,-0.3032786,-0.0469062,-0.0928195,0.0184035,-0.0031326,-
 0.0470538,-0.0103152,0.0249102,-0.1485377,-0.358798,0.0092424,0.297705
 8,-0.5207961,0.0100174,0.0098366,-0.0119951,-0.4314885,-0.0745793,0.49
 96936,-0.0006406,0.2924924,0.1333668,0.0099194,-0.0008521,0.0168688,-0
 .0467919,0.1924009,0.0214719,0.0077006,0.2015648,0.2811954,0.006983,0.
 0078365,0.0009607,-0.0345935,-0.3924213,-0.245274,-0.007956,-0.3102984
 ,-0.0986617,-0.0104188,-0.0080493,-0.0082011,-0.160983,0.4780095,0.074
 5246,0.0175204,-0.3262152,-0.0720441,-0.0109779,0.0173954,0.0025813,-0
 .0397928,-0.0413526,-0.0815802,-0.0047585,-0.1238779,-0.0701273,-0.004
 2642,-0.0047972,-0.0029346,0.0984865,-0.1475864,-0.0142541,-0.0081525,
 -0.0049653,0.069054,-0.0001901,-0.0081475,-0.0004531,0.0938706,0.01808
 78,0.0656365,-0.0038636,0.066922,-0.0261431,0.0021541,-0.0038645,0.002
 0699,0.1338288,0.0329865,-0.058941,-0.004213,-0.0266855,-0.0808767,-0.
 0010604,-0.0042116,-0.0022052,0.1565301\Polar=137.6541433,3.7488308,93
 .6409479,2.8816902,0.150477,52.2597972\Quadrupole=4.143583,-2.262669,-
 1.8809141,2.3136884,0.2046398,0.0776748\PG=C01 [X(C6H4N2)]\NImag=0\\0.
 38727625,-0.07983968,0.58600763,0.00933126,-0.00237506,0.10907054,-0.0
 7083552,0.06170553,-0.00096207,1.51243699,0.01833090,-0.07409904,0.000
 58960,0.03460220,0.12757698,-0.00099774,0.00203969,-0.04119108,0.04792
 465,0.00119677,0.09692932,-0.06730040,-0.01165534,-0.00269777,-1.31471
 730,-0.04223513,-0.04299729,1.36863536,-0.01785893,0.01784096,-0.00059
 723,-0.03690659,-0.04159824,-0.00124718,0.05177275,0.02237661,-0.00268
 500,-0.00038165,0.01216296,-0.04301285,-0.00142984,-0.04499311,0.04552
 723,0.00174916,0.02433605,-0.06975401,-0.05547697,-0.00112337,-0.05479
 985,-0.03563124,-0.00112768,0.00651706,0.00360587,-0.00007792,0.435365
 83,0.03600894,-0.24508162,0.00107133,-0.08271103,-0.00644769,-0.002757
 58,0.00718703,0.00354690,0.00023117,0.07316041,0.34132368,-0.00106358,
 -0.00200216,-0.03724180,-0.00115410,-0.00118527,-0.02228330,-0.0000730
 2,0.00011793,0.00903056,0.01267473,0.00264092,0.05978303,-0.01147601,-
 0.03591070,-0.00015991,-0.00750860,-0.01087756,-0.00097103,0.00188562,
 0.00167073,0.00029050,-0.27513932,-0.02362529,-0.00775741,0.59040358,-
 0.05625174,-0.00871526,-0.00189010,-0.00489454,-0.00971519,-0.00018881
 ,0.00656472,0.00142350,0.00022859,-0.01234320,-0.07011079,-0.00043420,
 0.03018796,0.69135388,-0.00018256,-0.00121063,-0.00734727,-0.00095966,
 -0.00038696,0.02112573,0.00028559,0.00006059,-0.00670883,-0.00774577,-
 0.00081260,-0.04482322,0.01552238,0.00134933,0.13057553,-0.00504361,0.
 00308979,0.00016081,0.00158076,0.00113285,0.00016023,-0.00053230,0.000
 06245,-0.00005695,-0.03466643,0.01616404,-0.00170876,-0.19738368,0.135
 84647,-0.00437046,0.71229853,0.02873988,-0.03508993,0.00095226,-0.0182
 1989,-0.00801518,-0.00061626,0.00828154,0.00262297,0.00028002,0.048697
 83,0.02739515,0.00164464,0.06561976,-0.27140489,0.00210142,-0.00760023
 ,0.64179763,0.00017865,0.00008987,-0.00973759,0.00014810,0.00003498,-0
 .00318419,-0.00005118,0.00000324,0.00116758,-0.00168959,0.00055145,0.0
 1631756,-0.00441416,0.00446869,-0.06574937,0.01918648,0.00002589,0.144
 11856,-0.06364380,0.04730367,-0.00246375,0.02404648,0.00806249,0.00054
 885,-0.01207769,-0.00237310,-0.00034038,-0.02850783,-0.02094883,-0.000
 67947,0.05946467,-0.00920923,0.00170399,-0.14648822,-0.02726156,-0.002
 71578,0.72423492,0.00384959,0.02339865,0.00013798,0.02787152,-0.004516
 08,0.00092914,-0.00932094,0.00055180,-0.00031208,-0.01971545,-0.009734
 04,-0.00066219,0.03016726,-0.05216740,0.00097936,-0.09082702,-0.272585
 14,-0.00317991,-0.05374791,0.67239945,-0.00248503,0.00160325,0.0101861
 1,0.00056012,0.00026320,0.00793915,-0.00034313,-0.00007794,-0.00205189
 ,-0.00068653,-0.00070741,-0.00858830,0.00173298,-0.00034432,0.00868286
 ,-0.00275561,-0.00104161,-0.06637080,0.02001831,-0.00146686,0.12968823
 ,-0.10100739,0.06018916,-0.00156804,-0.09059578,0.02733025,-0.00256266
 ,0.01854224,-0.00046309,0.00037280,0.04197405,0.01086767,0.00072496,-0
 .04722568,0.02560320,-0.00133518,-0.01646996,-0.07601251,-0.00085982,-
 0.38112874,-0.00124648,-0.01073592,0.69772637,0.08084741,-0.25147478,0
 .00259638,0.02344353,0.01550888,0.00080849,-0.01318932,-0.00608938,-0.
 00045308,-0.00769723,-0.03863147,-0.00029428,0.02180218,-0.01066596,0.
 00073307,-0.03553972,0.01332620,-0.00119356,-0.05631590,-0.12172792,-0
 .00193871,0.06900205,0.68511235,-0.00155938,0.00189505,-0.05327736,-0.
 00256327,0.00093979,-0.01407160,0.00036541,-0.00002452,0.00749593,0.00
 072146,0.00033058,0.02051294,-0.00134155,0.00086178,-0.00708733,-0.000
 83547,-0.00255631,0.00762653,-0.01077217,-0.00008357,-0.06305227,0.019
 34483,0.00270993,0.12598832,-0.00630370,-0.00482309,-0.00047244,0.0002
 4646,-0.00214729,-0.00005567,-0.00012543,0.00053119,0.00001512,-0.0169
 3577,-0.02136194,-0.00057897,-0.09836609,-0.10631959,-0.00197897,0.008
 94926,0.01883493,0.00011287,-0.00125522,0.00318427,-0.00032597,-0.0010
 0747,0.00056972,-0.00000330,0.11334669,0.00033185,0.00157484,0.0000074
 6,0.00042024,0.00081292,0.00001351,-0.00024006,-0.00029458,-0.00000793
 ,-0.00305784,0.00387562,-0.00010045,-0.09976323,-0.27553222,-0.0035091
 9,-0.01288864,-0.02151599,-0.00045142,0.00432733,-0.00202664,0.0001396
 7,0.00045967,0.00056563,0.00001627,0.11098771,0.29277718,-0.00047119,-
 0.00016474,0.00765257,-0.00005291,-0.00007271,0.00185163,0.00001401,0.
 00001783,-0.00056226,-0.00056233,-0.00071660,-0.00013727,-0.00198055,-
 0.00373442,-0.04168751,0.00009559,0.00062001,0.00592858,-0.00032668,0.
 00010205,0.00845189,-0.00000293,0.00001850,-0.00090251,0.00303013,0.00
 390767,0.02556164,0.00159582,0.00117267,-0.00004020,-0.00010692,0.0002
 5562,0.00015690,-0.00019304,0.00001125,-0.00005774,-0.00240594,0.00293
 183,-0.00020739,-0.01344709,-0.00647024,-0.00077058,-0.32719897,-0.030
 82061,-0.00962962,-0.00765522,0.00197628,-0.00041842,0.00126418,-0.002
 25615,-0.00017005,0.00090674,0.00009628,0.00015377,0.34677922,-0.00047
 563,-0.00195392,-0.00001827,-0.00015324,0.00002812,-0.00000297,0.00058
 099,-0.00012875,0.00001886,0.00421919,-0.00214847,0.00013823,0.0248718
 4,0.00773795,0.00083876,-0.02956619,-0.06145033,-0.00100824,-0.0290575
 5,0.00036822,-0.00098266,-0.00196814,-0.00525796,-0.00007323,-0.000272
 90,0.00084063,-0.00000675,0.03303144,0.06087851,-0.00003774,0.00003659
 ,0.00279225,0.00015355,0.00001213,-0.00473465,-0.00005495,-0.00000043,
 0.00151168,-0.00021037,0.00009742,0.00379212,-0.00075161,-0.00022236,0
 .00925924,-0.00963060,-0.00105001,-0.04273506,-0.00043476,0.00006387,0
 .00476571,-0.00016930,-0.00008286,0.00624589,0.00015348,0.00000616,-0.
 00364137,0.01088406,0.00113474,0.02521576,-0.00399250,-0.00269280,-0.0
 0035682,-0.00202413,0.00159101,-0.00018185,0.00013089,-0.00039742,0.00
 004639,0.00011010,0.00010936,0.00009276,-0.00037356,-0.00294724,-0.000
 20399,0.01051494,-0.01130067,0.00024801,-0.16130789,0.13683084,-0.0041
 8338,-0.01419338,0.02591403,-0.00058389,0.00034485,-0.00061065,0.00001
 245,0.00078507,0.00026350,0.00012708,0.16889465,-0.00141727,0.00155803
 ,-0.00005081,-0.00072303,0.00072832,-0.00002598,0.00000565,-0.00029119
 ,0.00000075,-0.00057988,-0.00004660,-0.00001804,-0.00414197,-0.0034956
 5,-0.00014532,0.02005337,-0.01658081,0.00066268,0.13755459,-0.23586234
 ,0.00449954,-0.00523405,0.00630466,-0.00017467,0.00091434,-0.00105811,
 0.00003054,-0.00022583,0.00108964,-0.00000489,-0.14657718,0.24687527,-
 0.00035688,-0.00009443,0.00654124,-0.00018340,0.00005223,0.00339473,0.
 00004618,-0.00001295,-0.00125091,0.00009206,0.00000478,-0.00264241,-0.
 00020344,-0.00010528,0.00563673,0.00026780,-0.00038876,0.00294016,-0.0
 0418292,0.00447070,-0.03456416,-0.00060379,0.00087557,0.00362483,0.000
 01319,-0.00002114,-0.00002936,0.00012720,0.00001138,-0.00298184,0.0047
 7408,-0.00479016,0.02442451,0.01048487,0.01693774,0.00035230,0.0022774
 1,-0.00041409,0.00010329,-0.00076500,0.00034491,-0.00002120,-0.0017578
 7,0.00221782,-0.00026975,-0.00083384,0.00023342,0.00003522,-0.00556031
 ,0.00104153,-0.00051397,-0.00568148,-0.02902198,-0.00037741,-0.1078784
 5,-0.10658059,-0.00260263,0.00019968,-0.00006265,0.00009064,-0.0003238
 7,-0.00147332,-0.00002884,0.00111097,0.00037123,0.00020992,0.10872789,
 -0.01226532,-0.01396555,-0.00042353,-0.00443470,-0.00026380,-0.0001488
 3,0.00224811,0.00003939,0.00007601,0.00481851,-0.00394068,0.00015486,-
 0.00000098,0.00129202,0.00000216,0.00007285,0.00150032,-0.00000366,0.0
 0166600,0.00190144,0.00005385,-0.10852774,-0.28697025,-0.00384110,-0.0
 0009735,-0.00001928,-0.00000138,0.00029744,-0.00000364,0.00000963,-0.0
 0018278,0.00077879,-0.00000192,0.11640597,0.29965123,0.00032918,0.0005
 6422,0.00038942,0.00010184,-0.00001393,-0.00078263,-0.00002107,0.00001
 149,-0.00013775,-0.00026469,0.00006652,0.00628009,0.00003380,0.0000111
 1,-0.00187656,-0.00051307,0.00002871,0.00967805,-0.00035523,-0.0009784
 8,0.00491348,-0.00260495,-0.00377945,-0.03310338,0.00009051,-0.0000006
 1,-0.00248605,-0.00002793,-0.00004985,0.00051027,0.00020917,0.00001635
 ,-0.00509352,0.00302244,0.00412391,0.02170857\\-0.00004256,-0.00003312
 ,-0.00000533,0.00002654,0.00008371,0.00001351,-0.00001313,-0.00004193,
 -0.00000737,-0.00002819,0.00001214,0.00000341,-0.00001851,-0.00003921,
 -0.00001639,0.00006620,0.00003965,0.00000003,0.00001735,-0.00002301,0.
 00000975,0.00002478,0.00004261,0.00000181,0.00002381,0.00002452,0.0000
 0686,-0.00005753,-0.00003746,-0.00000009,0.00000079,0.00000241,-0.0000
 0247,0.00000044,-0.00003031,-0.00000371\\\@


 SOME PHYSICISTS WOULD PREFER TO COME BACK TO THE IDEA OF AN OBJECTIVE
 REAL WORLD WHOSE SMALLEST PARTS EXIST OBJECTIVELY IN THE SAME SENSE AS
 STONES OR TREES EXIST INDEPENDENTLY OF WHETHER WE OBSERVE THEM.
 THIS, HOWEVER, IS IMPOSSIBLE.  -- WERNER HEISENBERG
 Job cpu time:       0 days  1 hours  2 minutes 18.1 seconds.
 Elapsed time:       0 days  0 hours  8 minutes 54.1 seconds.
 File lengths (MBytes):  RWF=    122 Int=      0 D2E=      0 Chk=      7 Scr=      1
 Normal termination of Gaussian 16 at Sat Nov  5 23:06:48 2016.
