
                                 *****************
                                 * O   R   C   A *
                                 *****************

           --- An Ab Initio, DFT and Semiempirical electronic structure package ---

                  #######################################################
                  #                        -***-                        #
                  #          Department of theory and spectroscopy      #
                  #               Directorship: Frank Neese             #
                  #        Max Planck Institute fuer Kohlenforschung    #
                  #                Kaiser Wilhelm Platz 1               #
                  #                 D-45470 Muelheim/Ruhr               #
                  #                      Germany                        #
                  #                                                     #
                  #                  All rights reserved                #
                  #                        -***-                        #
                  #######################################################


                         Program Version 4.1.0  - RELEASE  -


 With contributions from (in alphabetic order):
   Daniel Aravena         : Magnetic Properties
   Michael Atanasov       : Ab Initio Ligand Field Theory
   Alexander A. Auer      : GIAO ZORA
   Ute Becker             : Parallelization
   Giovanni Bistoni       : ED, Open-shell LED
   Martin Brehm           : Molecular dynamics
   Dmytro Bykov           : SCF Hessian
   Vijay G. Chilkuri      : MRCI spin determinant printing
   Dipayan Datta          : RHF DLPNO-CCSD density
   Achintya Kumar Dutta   : EOM-CC, STEOM-CC
   Dmitry Ganyushin       : Spin-Orbit,Spin-Spin,Magnetic field MRCI
   Miquel Garcia          : C-PCM Hessian
   Yang Guo               : DLPNO-NEVPT2, CIM, IAO-localization
   Andreas Hansen         : Spin unrestricted coupled pair/coupled cluster methods
   Benjamin Helmich-Paris : CASSCF linear response (MC-RPA)
   Lee Huntington         : MR-EOM, pCC
   Robert Izsak           : Overlap fitted RIJCOSX, COSX-SCS-MP3, EOM
   Christian Kollmar      : KDIIS, OOCD, Brueckner-CCSD(T), CCSD density
   Simone Kossmann        : Meta GGA functionals, TD-DFT gradient, OOMP2, MP2 Hessian
   Martin Krupicka        : AUTO-CI
   Lucas Lang             : DCDCAS
   Dagmar Lenk            : GEPOL surface, SMD
   Dimitrios Liakos       : Extrapolation schemes; parallel MDCI
   Dimitrios Manganas     : ROCIS; embedding schemes
   Dimitrios Pantazis     : SARC Basis sets
   Taras Petrenko         : DFT Hessian,TD-DFT gradient, ASA, ECA, R-Raman, ABS, FL, XAS/XES, NRVS
   Peter Pinski           : DLPNO-MP2, DLPNO-MP2 Gradient
   Christoph Reimann      : Effective Core Potentials
   Marius Retegan         : Local ZFS, SOC
   Christoph Riplinger    : Optimizer, TS searches, QM/MM, DLPNO-CCSD(T), (RO)-DLPNO pert. Triples
   Tobias Risthaus        : Range-separated hybrids, TD-DFT gradient, RPA, STAB
   Michael Roemelt        : Restricted open shell CIS
   Masaaki Saitow         : Open-shell DLPNO
   Barbara Sandhoefer     : DKH picture change effects
   Avijit Sen             : IP-ROCIS
   Kantharuban Sivalingam : CASSCF convergence, NEVPT2, FIC-MRCI
   Bernardo de Souza      : ESD, SOC TD-DFT
   Georgi Stoychev        : AutoAux, RI-MP2 NMR
   Willem Van den Heuvel  : Paramagnetic NMR
   Boris Wezisla          : Elementary symmetry handling
   Frank Wennmohs         : Technical directorship


 We gratefully acknowledge several colleagues who have allowed us to
 interface, adapt or use parts of their codes:
   Stefan Grimme, W. Hujo, H. Kruse,             : VdW corrections, initial TS optimization,
                  C. Bannwarth                     DFT functionals, gCP, sTDA/sTD-DF
   Ed Valeev                                     : LibInt (2-el integral package), F12 methods
   Garnet Chan, S. Sharma, J. Yang, R. Olivares  : DMRG
   Ulf Ekstrom                                   : XCFun DFT Library
   Mihaly Kallay                                 : mrcc  (arbitrary order and MRCC methods)
   Andreas Klamt, Michael Diedenhofen            : otool_cosmo (COSMO solvation model)
   Jiri Pittner, Ondrej Demel                    : Mk-CCSD
   Frank Weinhold                                : gennbo (NPA and NBO analysis)
   Christopher J. Cramer and Donald G. Truhlar   : smd solvation model
   Lars Goerigk                                  : TD-DFT with DH, B97 family of functionals
   V. Asgeirsson, H. Jonsson                     : NEB implementation
   FAccTs GmbH                                   : IRC, NEB, NEB-TS, Multilevel


 Your calculation uses the libint2 library for the computation of 2-el integrals
 For citations please refer to: http://libint.valeyev.net

 This ORCA versions uses:
   CBLAS   interface :  Fast vector & matrix operations
   LAPACKE interface :  Fast linear algebra routines
   SCALAPACK package :  Parallel linear algebra routines




***************************************
The coordinates will be read from file: 2-HOOC-4-Br-C6H2-N2-source.xyz
***************************************


Your calculation utilizes a Nudged-Elastic-Band implementation
 by V.Asgeirsson, C. Riplinger & H. Jonsson
Please cite in your paper:
 V. Asgeirsson et al., in prep. (2019)
   

----- Orbital basis set information -----
Your calculation utilizes the basis: aug-cc-pVDZ 
    H, B-Ne : Obtained from the ccRepo (grant-hill.group.shef.ac.uk/ccrepo) Feb. 2017
              R. A. Kendall, T. H. Dunning, Jr., R. J. Harrison, J. Chem. Phys. 96, 6796 (1992)
         He : Obtained from the ccRepo (grant-hill.group.shef.ac.uk/ccrepo) Feb. 2017
              D. E. Woon, T. H. Dunning, Jr., J. Chem. Phys. 100, 2975 (1994)
  Li-Be, Na : Obtained from the ccRepo (grant-hill.group.shef.ac.uk/ccrepo) Feb. 2017
              B. P. Prascher, D. E. Woon, K. A. Peterson, T. H. Dunning, Jr., A. K. Wilson, Theor. Chem. Acc. 128, 69 (2011)
         Mg : Obtained from the Peterson Research Group Website (tyr0.chem.wsu.edu/~kipeters) Feb. 2017
              B. P. Prascher, D. E. Woon, K. A. Peterson, T. H. Dunning, Jr., A. K. Wilson, Theor. Chem. Acc. 128, 69 (2011)
      Al-Ar : Obtained from the ccRepo (grant-hill.group.shef.ac.uk/ccrepo) Feb. 2017
              D. E. Woon, T. H. Dunning, Jr., J. Chem. Phys. 98, 1358 (1993)
      Sc-Zn : Obtained from the ccRepo (grant-hill.group.shef.ac.uk/ccrepo) Feb. 2017
              N. B. Balabanov, K. A. Peterson, J. Chem. Phys. 123, 064107 (2005)
              N. B. Balabanov, K. A. Peterson, J. Chem. Phys. 125, 074110 (2006)
      Ga-Kr : Obtained from the ccRepo (grant-hill.group.shef.ac.uk/ccrepo) Feb. 2017
              A. K. Wilson, D. E. Woon, K. A. Peterson, T. H. Dunning, Jr., J. Chem. Phys. 110, 7667 (1999)

================================================================================
                                        WARNINGS
                       Please study these warnings very carefully!
================================================================================


WARNING: Geometry Optimization
  ===> : Switching off AutoStart
         For restart on a previous wavefunction, please use MOREAD

INFO   : the flag for use of LIBINT has been found!

================================================================================
                                       INPUT FILE
================================================================================
NAME = 2-HOOC-4-Br-C6H2-N2-NEB-TS.orc
|  1> ! B3LYP/G aug-cc-pVDZ TightSCF Grid7 NEB-TS
|  2> %scf MaxIter 1000 end
|  3> %geom MaxIter 1000 TolE 1e-8 TolRMSG 5e-7 TolMaxG 1e-6 Convergence tight end
|  4> %neb
|  5>   Nimages 12
|  6>   neb_end_xyzfile "2-HOOC-4-Br-C6H2-N2-final.xyz"
|  7> end
|  8> * xyzfile 0 1 2-HOOC-4-Br-C6H2-N2-source.xyz
|  9> %pal nprocs 42 end
| 10> 
| 11>                          ****END OF INPUT****
================================================================================

Running a Single Point calculation on the reactant structure before starting the actual NEB.

---------------------------------
CARTESIAN COORDINATES (ANGSTROEM)
---------------------------------
  C     -1.378633   -1.491549   -1.058186
  C      0.032309   -1.313434   -1.110073
  C      0.392278    0.023730   -0.903160
  C     -0.435331    1.166188   -0.660572
  C     -1.794002    0.896653   -0.626763
  C     -2.243141   -0.427152   -0.825587
  H     -1.804043   -2.487005   -1.203715
  H     -2.492695    1.709729   -0.447521
  N      1.785227    0.168010   -0.958522
  N      2.898442    0.157717   -1.022072
  Br    -4.140853   -0.727317   -0.764847
  C     -0.001476    2.575934   -0.446486
  O     -0.750425    3.506775   -0.252394
  O      1.348859    2.729925   -0.512916
  H      1.532573    3.672886   -0.371075

----------------------------
CARTESIAN COORDINATES (A.U.)
----------------------------
  NO LB      ZA    FRAG     MASS         X           Y           Z
   0 C     6.0000    0    12.011   -2.605239   -2.818618   -1.999681
   1 C     6.0000    0    12.011    0.061056   -2.482031   -2.097735
   2 C     6.0000    0    12.011    0.741298    0.044843   -1.706724
   3 C     6.0000    0    12.011   -0.822656    2.203775   -1.248300
   4 C     6.0000    0    12.011   -3.390173    1.694428   -1.184411
   5 C     6.0000    0    12.011   -4.238922   -0.807201   -1.560132
   6 H     1.0000    0     1.008   -3.409146   -4.699757   -2.274692
   7 H     1.0000    0     1.008   -4.710511    3.230920   -0.845692
   8 N     7.0000    0    14.007    3.373591    0.317492   -1.811343
   9 N     7.0000    0    14.007    5.477261    0.298042   -1.931437
  10 Br   35.0000    0    79.900   -7.825078   -1.374431   -1.445352
  11 C     6.0000    0    12.011   -0.002788    4.867810   -0.843736
  12 O     8.0000    0    15.999   -1.418097    6.626845   -0.476956
  13 O     8.0000    0    15.999    2.548974    5.158810   -0.969271
  14 H     1.0000    0     1.008    2.896143    6.940749   -0.701231

--------------------------------
INTERNAL COORDINATES (ANGSTROEM)
--------------------------------
 C      0   0   0     0.000000000000     0.00000000     0.00000000
 C      1   0   0     1.423086535492     0.00000000     0.00000000
 C      2   1   0     1.400142001920   111.65663155     0.00000000
 C      3   2   1     1.431431465352   129.68927310     0.00000000
 C      4   3   2     1.385561362757   114.57120443     0.04316025
 C      1   2   3     1.390832871738   121.77496140   359.96189468
 H      1   2   3     1.092284191246   119.69295263   179.96027027
 H      5   4   3     1.086918820047   119.26486390   179.98997716
 N      3   2   1     1.401495101785   110.36539661   179.94664372
 N      9   3   2     1.115074718874   173.48657925   359.07786965
 Br     6   1   2     1.922264094817   119.96156040   180.04470698
 C      4   3   2     1.490452516844   127.65816434   180.04343595
 O     12   4   3     1.210397160116   124.77202721   179.54996240
 O     12   4   3     1.360709048239   112.88601149     0.60609834
 H     14  12   4     0.971105813047   106.88768540   179.47269705

---------------------------
INTERNAL COORDINATES (A.U.)
---------------------------
 C      0   0   0     0.000000000000     0.00000000     0.00000000
 C      1   0   0     2.689243816951     0.00000000     0.00000000
 C      2   1   0     2.645884932229   111.65663155     0.00000000
 C      3   2   1     2.705013448992   129.68927310     0.00000000
 C      4   3   2     2.618331517353   114.57120443     0.04316025
 C      1   2   3     2.628293225640   121.77496140   359.96189468
 H      1   2   3     2.064117981867   119.69295263   179.96027027
 H      5   4   3     2.053978899694   119.26486390   179.98997716
 N      3   2   1     2.648441920406   110.36539661   179.94664372
 N      9   3   2     2.107185837530   173.48657925   359.07786965
 Br     6   1   2     3.632552696274   119.96156040   180.04470698
 C      4   3   2     2.816547072449   127.65816434   180.04343595
 O     12   4   3     2.287319145895   124.77202721   179.54996240
 O     12   4   3     2.571367449119   112.88601149     0.60609834
 H     14  12   4     1.835124033718   106.88768540   179.47269705

---------------------
BASIS SET INFORMATION
---------------------
There are 5 groups of distinct atoms

 Group   1 Type C   : 18s5p2d contracted to 4s3p2d pattern {8811/311/11}
 Group   2 Type H   : 5s2p contracted to 3s2p pattern {311/11}
 Group   3 Type N   : 18s5p2d contracted to 4s3p2d pattern {8811/311/11}
 Group   4 Type Br  : 54s32p7d contracted to 6s5p3d pattern {1313131311/10101011/511}
 Group   5 Type O   : 18s5p2d contracted to 4s3p2d pattern {8811/311/11}

Atom   0C    basis set group =>   1
Atom   1C    basis set group =>   1
Atom   2C    basis set group =>   1
Atom   3C    basis set group =>   1
Atom   4C    basis set group =>   1
Atom   5C    basis set group =>   1
Atom   6H    basis set group =>   2
Atom   7H    basis set group =>   2
Atom   8N    basis set group =>   3
Atom   9N    basis set group =>   3
Atom  10Br   basis set group =>   4
Atom  11C    basis set group =>   1
Atom  12O    basis set group =>   5
Atom  13O    basis set group =>   5
Atom  14H    basis set group =>   2


           ************************************************************
           *        Program running with 42 parallel MPI-processes    *
           *            working without local directories             *
           ************************************************************
------------------------------------------------------------------------------
                           ORCA GTO INTEGRAL CALCULATION
------------------------------------------------------------------------------

                         BASIS SET STATISTICS AND STARTUP INFO

 # of primitive gaussian shells          ...  389
 # of primitive gaussian functions       ...  691
 # of contracted shells                  ...  128
 # of contracted basis functions         ...  316
 Highest angular momentum                ...    2
 Maximum contraction depth               ...   13
 Integral package used                   ... LIBINT
 Integral threshhold            Thresh   ...  2.500e-11
 Primitive cut-off              TCut     ...  2.500e-12


------------------------------ INTEGRAL EVALUATION ----------------------------


 * One electron integrals 
 Pre-screening matrix                    ... done
 Shell pair data                         ... done (   0.006 sec)



           ************************************************************
           *        Program running with 42 parallel MPI-processes    *
           *            working without local directories             *
           ************************************************************
-------------------------------------------------------------------------------
                                 ORCA SCF
-------------------------------------------------------------------------------

------------
SCF SETTINGS
------------
Hamiltonian:
 Density Functional     Method          .... DFT(GTOs)
 Exchange Functional    Exchange        .... B88
   X-Alpha parameter    XAlpha          ....  0.666667
   Becke's b parameter  XBeta           ....  0.004200
 Correlation Functional Correlation     .... LYP
 LDA part of GGA corr.  LDAOpt          .... VWN-3
 Gradients option       PostSCFGGA      .... off
 Hybrid DFT is turned on
   Fraction HF Exchange ScalHFX         ....  0.200000
   Scaling of DF-GGA-X  ScalDFX         ....  0.720000
   Scaling of DF-GGA-C  ScalDFC         ....  0.810000
   Scaling of DF-LDA-C  ScalLDAC        ....  1.000000
   Perturbative correction              ....  0.000000
   Density functional embedding theory  .... OFF
   NL short-range parameter             ....  4.800000


General Settings:
 Integral files         IntName         .... 2-HOOC-4-Br-C6H2-N2-NEB-TS
 Hartree-Fock type      HFTyp           .... RHF
 Total Charge           Charge          ....    0
 Multiplicity           Mult            ....    1
 Number of Electrons    NEL             ....  110
 Basis Dimension        Dim             ....  316
 Nuclear Repulsion      ENuc            ....    867.6855328696 Eh

Convergence Acceleration:
 DIIS                   CNVDIIS         .... on
   Start iteration      DIISMaxIt       ....    12
   Startup error        DIISStart       ....  0.200000
   # of expansion vecs  DIISMaxEq       ....     5
   Bias factor          DIISBfac        ....   1.050
   Max. coefficient     DIISMaxC        ....  10.000
 Newton-Raphson         CNVNR           .... off
 SOSCF                  CNVSOSCF        .... on
   Start iteration      SOSCFMaxIt      ....   150
   Startup grad/error   SOSCFStart      ....  0.003300
 Level Shifting         CNVShift        .... on
   Level shift para.    LevelShift      ....    0.2500
   Turn off err/grad.   ShiftErr        ....    0.0010
 Zerner damping         CNVZerner       .... off
 Static damping         CNVDamp         .... on
   Fraction old density DampFac         ....    0.7000
   Max. Damping (<1)    DampMax         ....    0.9800
   Min. Damping (>=0)   DampMin         ....    0.0000
   Turn off err/grad.   DampErr         ....    0.1000
 Fernandez-Rico         CNVRico         .... off

SCF Procedure:
 Maximum # iterations   MaxIter         ....  1000
 SCF integral mode      SCFMode         .... Direct
   Integral package                     .... LIBINT
 Reset frequency        DirectResetFreq ....    20
 Integral Threshold     Thresh          ....  2.500e-11 Eh
 Primitive CutOff       TCut            ....  2.500e-12 Eh

Convergence Tolerance:
 Convergence Check Mode ConvCheckMode   .... Total+1el-Energy
 Convergence forced     ConvForced      .... 0
 Energy Change          TolE            ....  1.000e-08 Eh
 1-El. energy change                    ....  1.000e-05 Eh
 Orbital Gradient       TolG            ....  1.000e-05
 Orbital Rotation angle TolX            ....  1.000e-05
 DIIS Error             TolErr          ....  5.000e-07


Diagonalization of the overlap matrix:
Smallest eigenvalue                        ... 2.693e-06
Time for diagonalization                   ...    0.026 sec
Threshold for overlap eigenvalues          ... 1.000e-08
Number of eigenvalues below threshold      ... 0
Time for construction of square roots      ...    0.028 sec
Total time needed                          ...    0.054 sec

-------------------
DFT GRID GENERATION
-------------------

General Integration Accuracy     IntAcc      ...  5.670
Radial Grid Type                 RadialGrid  ... Gauss-Chebyshev
Angular Grid (max. acc.)         AngularGrid ... Lebedev-770
Angular grid pruning method      GridPruning ... 3 (G Style)
Weight generation scheme         WeightScheme... Becke
Basis function cutoff            BFCut       ...    1.0000e-11
Integration weight cutoff        WCut        ...    1.0000e-14
Grids for H and He will be reduced by one unit

# of grid points (after initial pruning)     ... 363932 (   0.0 sec)
# of grid points (after weights+screening)   ... 334457 (   0.3 sec)
nearest neighbour list constructed           ...    0.0 sec
Grid point re-assignment to atoms done       ...    0.1 sec
Grid point division into batches done        ...    8.3 sec
Reduced shell lists constructed in    8.5 sec

Total number of grid points                  ...   334457
Total number of batches                      ...     5234
Average number of points per batch           ...       63
Average number of grid points per atom       ...    22297
Average number of shells per batch           ...    98.80 (77.19%)
Average number of basis functions per batch  ...   242.66 (76.79%)
Average number of large shells per batch     ...    78.99 (79.95%)
Average number of large basis fcns per batch ...   196.79 (81.10%)
Maximum spatial batch extension              ...   3.65,  5.04, 13.21 au
Average spatial batch extension              ...   0.03,  0.03,  0.03 au

Time for grid setup =   10.623 sec

------------------------------
INITIAL GUESS: MODEL POTENTIAL
------------------------------
Loading Hartree-Fock densities                     ... done
Calculating cut-offs                               ... done
Setting up the integral package                    ... done
Initializing the effective Hamiltonian             ... done
Starting the Coulomb interaction                   ... done (   0.1 sec)
Reading the grid                                   ... done
Mapping shells                                     ... done
Starting the XC term evaluation                    ... done (   0.4 sec)
  promolecular density results
     # of electrons  =    109.998544370
     EX              =   -156.045409713
     EC              =     -4.323203389
     EX+EC           =   -160.368613102
Transforming the Hamiltonian                       ... done (   0.0 sec)
Diagonalizing the Hamiltonian                      ... done (   0.0 sec)
Back transforming the eigenvectors                 ... done (   0.0 sec)
Now organizing SCF variables                       ... done
                      ------------------
                      INITIAL GUESS DONE (  11.3 sec)
                      ------------------
--------------
SCF ITERATIONS
--------------
ITER       Energy         Delta-E        Max-DP      RMS-DP      [F,P]     Damp
               ***  Starting incremental Fock matrix formation  ***
  0  -3102.2943185830   0.000000000000 1.32879463  0.01819291  0.2645205 0.7000
  1  -3102.4507551646  -0.156436581578 0.98235360  0.01307711  0.0972188 0.7000
                               ***Turning on DIIS***
  2  -3102.4984422736  -0.047687108998 2.12370655  0.02731953  0.0365935 0.0000
  3  -3102.5800588726  -0.081616599030 0.21041056  0.00382324  0.0523222 0.0000
  4  -3102.6019483885  -0.021889515831 0.12055498  0.00186788  0.0198609 0.0000
  5  -3102.6038523424  -0.001903953935 0.03146690  0.00053071  0.0078338 0.0000
                      *** Initiating the SOSCF procedure ***
                           *** Shutting down DIIS ***
                      *** Re-Reading the Fockian *** 
                      *** Removing any level shift *** 
ITER      Energy       Delta-E        Grad      Rot      Max-DP    RMS-DP
  6  -3102.60405393  -0.0002015913  0.001532  0.001532  0.013734  0.000226
               *** Restarting incremental Fock matrix formation ***
  7  -3102.60410584  -0.0000519088  0.001041  0.009196  0.029469  0.000311
  8  -3102.60413099  -0.0000251447  0.000998  0.009479  0.024682  0.000270
  9  -3102.60413379  -0.0000028000  0.000847  0.004457  0.015452  0.000152
 10  -3102.60414420  -0.0000104086  0.000285  0.002332  0.012405  0.000173
 11  -3102.60414433  -0.0000001365  0.000190  0.002018  0.007447  0.000091
 12  -3102.60414730  -0.0000029634  0.000067  0.000266  0.007241  0.000161
 13  -3102.60414703   0.0000002618  0.000089  0.000270  0.003968  0.000064
 14  -3102.60414748  -0.0000004452  0.000012  0.000061  0.009960  0.000120
 15  -3102.60414747   0.0000000126  0.000016  0.000044  0.005405  0.000083
 16  -3102.60414749  -0.0000000208  0.000003  0.000006  0.018592  0.000170
 17  -3102.60414749   0.0000000014  0.000004  0.000006  0.008194  0.000119
 18  -3102.60414749  -0.0000000004  0.000003  0.000007  0.004487  0.000057
                  ***Gradient check signals convergence***
              ***Rediagonalizing the Fockian in SOSCF/NRSCF***

               *****************************************************
               *                     SUCCESS                       *
               *           SCF CONVERGED AFTER  19 CYCLES          *
               *****************************************************


----------------
TOTAL SCF ENERGY
----------------

Total Energy       :        -3102.60414749 Eh          -84426.15100 eV

Components:
Nuclear Repulsion  :          867.68553287 Eh           23610.92371 eV
Electronic Energy  :        -3970.28968036 Eh         -108037.07470 eV
One Electron Energy:        -6022.75611583 Eh         -163887.52579 eV
Two Electron Energy:         2052.46643547 Eh           55850.45109 eV

Virial components:
Potential Energy   :        -6198.32349636 Eh         -168664.95710 eV
Kinetic Energy     :         3095.71934888 Eh           84238.80610 eV
Virial Ratio       :            2.00222397


DFT components:
N(Alpha)           :       55.000000506301 electrons
N(Beta)            :       55.000000506301 electrons
N(Total)           :      110.000001012601 electrons
E(X)               :     -124.488990416113 Eh       
E(C)               :       -5.480357554203 Eh       
E(XC)              :     -129.969347970316 Eh       
DFET-embed. en.    :        0.000000000000 Eh       

---------------
SCF CONVERGENCE
---------------

  Last Energy change         ...   -1.1109e-09  Tolerance :   1.0000e-08
  Last MAX-Density change    ...    6.9733e-03  Tolerance :   1.0000e-07
  Last RMS-Density change    ...    8.3224e-05  Tolerance :   5.0000e-09
  Last Orbital Gradient      ...    1.8920e-06  Tolerance :   1.0000e-05
  Last Orbital Rotation      ...    2.3456e-06  Tolerance :   1.0000e-05

             **** THE GBW FILE WAS UPDATED (2-HOOC-4-Br-C6H2-N2-NEB-TS.gbw) ****
             **** DENSITY FILE WAS UPDATED (2-HOOC-4-Br-C6H2-N2-NEB-TS.scfp.tmp) ****
             **** ENERGY FILE WAS UPDATED (2-HOOC-4-Br-C6H2-N2-NEB-TS.en.tmp) ****
----------------
ORBITAL ENERGIES
----------------

  NO   OCC          E(Eh)            E(eV) 
   0   2.0000    -482.897022    -13140.2960 
   1   2.0000     -62.548040     -1702.0187 
   2   2.0000     -56.365068     -1533.7715 
   3   2.0000     -56.361743     -1533.6810 
   4   2.0000     -56.361501     -1533.6744 
   5   2.0000     -19.233836      -523.3793 
   6   2.0000     -19.173350      -521.7334 
   7   2.0000     -14.548953      -395.8971 
   8   2.0000     -14.504871      -394.6976 
   9   2.0000     -10.360574      -281.9256 
  10   2.0000     -10.291004      -280.0325 
  11   2.0000     -10.275638      -279.6143 
  12   2.0000     -10.258453      -279.1467 
  13   2.0000     -10.237002      -278.5630 
  14   2.0000     -10.219488      -278.0864 
  15   2.0000     -10.185336      -277.1571 
  16   2.0000      -8.728656      -237.5188 
  17   2.0000      -6.558422      -178.4637 
  18   2.0000      -6.546388      -178.1363 
  19   2.0000      -6.545609      -178.1151 
  20   2.0000      -2.668836       -72.6227 
  21   2.0000      -2.665509       -72.5322 
  22   2.0000      -2.664932       -72.5165 
  23   2.0000      -2.655324       -72.2550 
  24   2.0000      -2.655322       -72.2550 
  25   2.0000      -1.201242       -32.6875 
  26   2.0000      -1.148575       -31.2543 
  27   2.0000      -1.058783       -28.8109 
  28   2.0000      -0.929939       -25.3049 
  29   2.0000      -0.870515       -23.6879 
  30   2.0000      -0.815575       -22.1929 
  31   2.0000      -0.783574       -21.3221 
  32   2.0000      -0.718318       -19.5464 
  33   2.0000      -0.678490       -18.4627 
  34   2.0000      -0.627277       -17.0691 
  35   2.0000      -0.604552       -16.4507 
  36   2.0000      -0.555241       -15.1089 
  37   2.0000      -0.554751       -15.0955 
  38   2.0000      -0.536274       -14.5928 
  39   2.0000      -0.520772       -14.1709 
  40   2.0000      -0.514555       -14.0018 
  41   2.0000      -0.489637       -13.3237 
  42   2.0000      -0.485828       -13.2201 
  43   2.0000      -0.463904       -12.6235 
  44   2.0000      -0.442209       -12.0331 
  45   2.0000      -0.419947       -11.4273 
  46   2.0000      -0.411514       -11.1979 
  47   2.0000      -0.383324       -10.4308 
  48   2.0000      -0.363994        -9.9048 
  49   2.0000      -0.341505        -9.2928 
  50   2.0000      -0.323443        -8.8013 
  51   2.0000      -0.306732        -8.3466 
  52   2.0000      -0.285657        -7.7731 
  53   2.0000      -0.277405        -7.5486 
  54   2.0000      -0.216014        -5.8781 
  55   0.0000      -0.129250        -3.5171 
  56   0.0000      -0.104129        -2.8335 
  57   0.0000      -0.073095        -1.9890 
  58   0.0000      -0.030942        -0.8420 
  59   0.0000      -0.021593        -0.5876 
  60   0.0000      -0.018924        -0.5149 
  61   0.0000      -0.001368        -0.0372 
  62   0.0000       0.015266         0.4154 
  63   0.0000       0.016695         0.4543 
  64   0.0000       0.021152         0.5756 
  65   0.0000       0.029378         0.7994 
  66   0.0000       0.035495         0.9659 
  67   0.0000       0.045087         1.2269 
  68   0.0000       0.060619         1.6495 
  69   0.0000       0.062399         1.6980 
  70   0.0000       0.063912         1.7391 
  71   0.0000       0.068622         1.8673 
  72   0.0000       0.071222         1.9381 
  73   0.0000       0.079026         2.1504 
  74   0.0000       0.087442         2.3794 
  75   0.0000       0.091852         2.4994 
  76   0.0000       0.093028         2.5314 
  77   0.0000       0.100882         2.7451 
  78   0.0000       0.102518         2.7897 
  79   0.0000       0.108918         2.9638 
  80   0.0000       0.112797         3.0694 
  81   0.0000       0.115203         3.1348 
  82   0.0000       0.120604         3.2818 
  83   0.0000       0.128856         3.5064 
  84   0.0000       0.128984         3.5098 
  85   0.0000       0.133735         3.6391 
  86   0.0000       0.146967         3.9992 
  87   0.0000       0.149766         4.0753 
  88   0.0000       0.153290         4.1712 
  89   0.0000       0.163570         4.4510 
  90   0.0000       0.166219         4.5230 
  91   0.0000       0.171221         4.6592 
  92   0.0000       0.176685         4.8078 
  93   0.0000       0.183168         4.9842 
  94   0.0000       0.184327         5.0158 
  95   0.0000       0.185808         5.0561 
  96   0.0000       0.188590         5.1318 
  97   0.0000       0.201946         5.4952 
  98   0.0000       0.202637         5.5140 
  99   0.0000       0.203116         5.5271 
 100   0.0000       0.206702         5.6246 
 101   0.0000       0.214709         5.8425 
 102   0.0000       0.224844         6.1183 
 103   0.0000       0.229464         6.2440 
 104   0.0000       0.233576         6.3559 
 105   0.0000       0.241634         6.5752 
 106   0.0000       0.247663         6.7393 
 107   0.0000       0.253156         6.8887 
 108   0.0000       0.254218         6.9176 
 109   0.0000       0.265957         7.2371 
 110   0.0000       0.272179         7.4064 
 111   0.0000       0.272467         7.4142 
 112   0.0000       0.277129         7.5411 
 113   0.0000       0.283061         7.7025 
 114   0.0000       0.285436         7.7671 
 115   0.0000       0.289596         7.8803 
 116   0.0000       0.295647         8.0450 
 117   0.0000       0.304997         8.2994 
 118   0.0000       0.306003         8.3268 
 119   0.0000       0.312443         8.5020 
 120   0.0000       0.323214         8.7951 
 121   0.0000       0.329630         8.9697 
 122   0.0000       0.342211         9.3120 
 123   0.0000       0.345833         9.4106 
 124   0.0000       0.353877         9.6295 
 125   0.0000       0.367940        10.0122 
 126   0.0000       0.377091        10.2612 
 127   0.0000       0.381111        10.3706 
 128   0.0000       0.383517        10.4360 
 129   0.0000       0.400983        10.9113 
 130   0.0000       0.404474        11.0063 
 131   0.0000       0.426648        11.6097 
 132   0.0000       0.442932        12.0528 
 133   0.0000       0.448513        12.2047 
 134   0.0000       0.450578        12.2609 
 135   0.0000       0.463073        12.6009 
 136   0.0000       0.474976        12.9248 
 137   0.0000       0.488599        13.2955 
 138   0.0000       0.490109        13.3365 
 139   0.0000       0.495568        13.4851 
 140   0.0000       0.505326        13.7506 
 141   0.0000       0.517418        14.0797 
 142   0.0000       0.519466        14.1354 
 143   0.0000       0.528580        14.3834 
 144   0.0000       0.538574        14.6554 
 145   0.0000       0.539298        14.6750 
 146   0.0000       0.548973        14.9383 
 147   0.0000       0.554249        15.0819 
 148   0.0000       0.560233        15.2447 
 149   0.0000       0.564826        15.3697 
 150   0.0000       0.580951        15.8085 
 151   0.0000       0.581481        15.8229 
 152   0.0000       0.584314        15.9000 
 153   0.0000       0.593947        16.1621 
 154   0.0000       0.603092        16.4110 
 155   0.0000       0.605793        16.4845 
 156   0.0000       0.614542        16.7225 
 157   0.0000       0.622930        16.9508 
 158   0.0000       0.630614        17.1599 
 159   0.0000       0.638605        17.3773 
 160   0.0000       0.652099        17.7445 
 161   0.0000       0.665487        18.1088 
 162   0.0000       0.677134        18.4257 
 163   0.0000       0.683577        18.6011 
 164   0.0000       0.690145        18.7798 
 165   0.0000       0.699166        19.0253 
 166   0.0000       0.702692        19.1212 
 167   0.0000       0.707730        19.2583 
 168   0.0000       0.710990        19.3470 
 169   0.0000       0.719496        19.5785 
 170   0.0000       0.720512        19.6061 
 171   0.0000       0.733480        19.9590 
 172   0.0000       0.740278        20.1440 
 173   0.0000       0.752031        20.4638 
 174   0.0000       0.765728        20.8365 
 175   0.0000       0.766917        20.8689 
 176   0.0000       0.768884        20.9224 
 177   0.0000       0.785834        21.3836 
 178   0.0000       0.787420        21.4268 
 179   0.0000       0.798142        21.7186 
 180   0.0000       0.813947        22.1486 
 181   0.0000       0.824565        22.4376 
 182   0.0000       0.829943        22.5839 
 183   0.0000       0.845524        23.0079 
 184   0.0000       0.847089        23.0505 
 185   0.0000       0.853188        23.2164 
 186   0.0000       0.869520        23.6608 
 187   0.0000       0.881957        23.9993 
 188   0.0000       0.893227        24.3059 
 189   0.0000       0.897508        24.4224 
 190   0.0000       0.898029        24.4366 
 191   0.0000       0.922461        25.1014 
 192   0.0000       0.947556        25.7843 
 193   0.0000       0.957683        26.0599 
 194   0.0000       0.965428        26.2706 
 195   0.0000       0.977634        26.6028 
 196   0.0000       1.003364        27.3029 
 197   0.0000       1.011998        27.5379 
 198   0.0000       1.022864        27.8335 
 199   0.0000       1.043878        28.4054 
 200   0.0000       1.049307        28.5531 
 201   0.0000       1.057166        28.7669 
 202   0.0000       1.061878        28.8952 
 203   0.0000       1.065427        28.9917 
 204   0.0000       1.088690        29.6248 
 205   0.0000       1.104879        30.0653 
 206   0.0000       1.110676        30.2230 
 207   0.0000       1.122201        30.5366 
 208   0.0000       1.131774        30.7971 
 209   0.0000       1.159252        31.5449 
 210   0.0000       1.179567        32.0977 
 211   0.0000       1.180234        32.1158 
 212   0.0000       1.203329        32.7442 
 213   0.0000       1.203765        32.7561 
 214   0.0000       1.221268        33.2324 
 215   0.0000       1.233124        33.5550 
 216   0.0000       1.239871        33.7386 
 217   0.0000       1.257452        34.2170 
 218   0.0000       1.258115        34.2351 
 219   0.0000       1.290436        35.1146 
 220   0.0000       1.295514        35.2527 
 221   0.0000       1.303563        35.4718 
 222   0.0000       1.325630        36.0722 
 223   0.0000       1.355097        36.8741 
 224   0.0000       1.356052        36.9000 
 225   0.0000       1.397828        38.0368 
 226   0.0000       1.425307        38.7846 
 227   0.0000       1.432468        38.9794 
 228   0.0000       1.434877        39.0450 
 229   0.0000       1.446638        39.3650 
 230   0.0000       1.458921        39.6993 
 231   0.0000       1.469409        39.9847 
 232   0.0000       1.481538        40.3147 
 233   0.0000       1.493626        40.6436 
 234   0.0000       1.504599        40.9422 
 235   0.0000       1.505998        40.9803 
 236   0.0000       1.513327        41.1797 
 237   0.0000       1.522868        41.4393 
 238   0.0000       1.536771        41.8177 
 239   0.0000       1.546510        42.0827 
 240   0.0000       1.560742        42.4699 
 241   0.0000       1.594570        43.3904 
 242   0.0000       1.615848        43.9695 
 243   0.0000       1.631204        44.3873 
 244   0.0000       1.648339        44.8536 
 245   0.0000       1.653997        45.0075 
 246   0.0000       1.670226        45.4492 
 247   0.0000       1.693699        46.0879 
 248   0.0000       1.703412        46.3522 
 249   0.0000       1.723953        46.9111 
 250   0.0000       1.728466        47.0340 
 251   0.0000       1.743452        47.4417 
 252   0.0000       1.759238        47.8713 
 253   0.0000       1.800906        49.0051 
 254   0.0000       1.845468        50.2177 
 255   0.0000       1.850684        50.3597 
 256   0.0000       1.874792        51.0157 
 257   0.0000       1.878814        51.1251 
 258   0.0000       1.888646        51.3927 
 259   0.0000       1.902825        51.7785 
 260   0.0000       1.932225        52.5785 
 261   0.0000       1.936466        52.6939 
 262   0.0000       1.941810        52.8393 
 263   0.0000       1.964785        53.4645 
 264   0.0000       2.003165        54.5089 
 265   0.0000       2.011118        54.7253 
 266   0.0000       2.018362        54.9224 
 267   0.0000       2.035807        55.3971 
 268   0.0000       2.049530        55.7705 
 269   0.0000       2.065480        56.2046 
 270   0.0000       2.071102        56.3576 
 271   0.0000       2.088804        56.8393 
 272   0.0000       2.127681        57.8971 
 273   0.0000       2.137779        58.1719 
 274   0.0000       2.160419        58.7880 
 275   0.0000       2.172583        59.1190 
 276   0.0000       2.174562        59.1728 
 277   0.0000       2.212259        60.1986 
 278   0.0000       2.257891        61.4403 
 279   0.0000       2.268922        61.7405 
 280   0.0000       2.288369        62.2697 
 281   0.0000       2.318780        63.0972 
 282   0.0000       2.383607        64.8612 
 283   0.0000       2.388925        65.0060 
 284   0.0000       2.435679        66.2782 
 285   0.0000       2.459934        66.9382 
 286   0.0000       2.499754        68.0218 
 287   0.0000       2.566678        69.8428 
 288   0.0000       2.625337        71.4390 
 289   0.0000       2.659782        72.3763 
 290   0.0000       2.683478        73.0211 
 291   0.0000       2.706715        73.6535 
 292   0.0000       2.809486        76.4500 
 293   0.0000       2.846675        77.4620 
 294   0.0000       2.859431        77.8091 
 295   0.0000       2.864106        77.9363 
 296   0.0000       2.914765        79.3148 
 297   0.0000       2.962919        80.6251 
 298   0.0000       3.044912        82.8563 
 299   0.0000       3.086694        83.9932 
 300   0.0000       3.129062        85.1461 
 301   0.0000       3.214132        87.4610 
 302   0.0000       3.261071        88.7382 
 303   0.0000       3.281464        89.2932 
 304   0.0000       3.307498        90.0016 
 305   0.0000       3.351334        91.1944 
 306   0.0000       3.353611        91.2564 
 307   0.0000       3.379334        91.9564 
 308   0.0000       3.405970        92.6812 
 309   0.0000       3.439284        93.5877 
 310   0.0000       3.475729        94.5794 
 311   0.0000       3.557796        96.8126 
 312   0.0000       3.654988        99.4573 
 313   0.0000       3.668675        99.8297 
 314   0.0000       3.839036       104.4655 
 315   0.0000       3.978462       108.2594 

                    ********************************
                    * MULLIKEN POPULATION ANALYSIS *
                    ********************************

-----------------------
MULLIKEN ATOMIC CHARGES
-----------------------
   0 C :    0.504523
   1 C :   -1.660046
   2 C :    1.224136
   3 C :    2.053395
   4 C :    0.509576
   5 C :   -0.159719
   6 H :   -0.727072
   7 H :   -0.985603
   8 N :    0.475785
   9 N :   -0.921480
  10 Br:    0.097955
  11 C :    0.443763
  12 O :   -0.531381
  13 O :   -0.598003
  14 H :    0.274170
Sum of atomic charges:    0.0000000

--------------------------------
MULLIKEN REDUCED ORBITAL CHARGES
--------------------------------
  0 C s       :     3.234875  s :     3.234875
      pz      :     0.951115  p :     2.444102
      px      :     0.691806
      py      :     0.801181
      dz2     :     0.005356  d :    -0.183500
      dxz     :    -0.002356
      dyz     :     0.009056
      dx2y2   :    -0.124029
      dxy     :    -0.071526
  1 C s       :     4.250809  s :     4.250809
      pz      :     0.611991  p :     3.358161
      px      :     1.346322
      py      :     1.399848
      dz2     :     0.012099  d :     0.051075
      dxz     :     0.005565
      dyz     :     0.013180
      dx2y2   :     0.075251
      dxy     :    -0.055019
  2 C s       :     3.472037  s :     3.472037
      pz      :     1.062645  p :     1.416245
      px      :     0.190004
      py      :     0.163596
      dz2     :     0.013018  d :    -0.112418
      dxz     :    -0.005653
      dyz     :     0.029417
      dx2y2   :    -0.091106
      dxy     :    -0.058093
  3 C s       :     3.260425  s :     3.260425
      pz      :     0.911609  p :     0.596389
      px      :    -0.382195
      py      :     0.066976
      dz2     :     0.026360  d :     0.089791
      dxz     :     0.044982
      dyz     :     0.019815
      dx2y2   :    -0.103825
      dxy     :     0.102458
  4 C s       :     3.610931  s :     3.610931
      pz      :     0.925773  p :     2.398537
      px      :     1.375493
      py      :     0.097271
      dz2     :     0.005246  d :    -0.519044
      dxz     :     0.000352
      dyz     :     0.007002
      dx2y2   :    -0.335869
      dxy     :    -0.195775
  5 C s       :     4.122236  s :     4.122236
      pz      :     0.886225  p :     1.795389
      px      :     0.695117
      py      :     0.214047
      dz2     :     0.023879  d :     0.242094
      dxz     :     0.051521
      dyz     :     0.023155
      dx2y2   :     0.045100
      dxy     :     0.098439
  6 H s       :     1.717988  s :     1.717988
      pz      :     0.017725  p :     0.009084
      px      :    -0.021675
      py      :     0.013034
  7 H s       :     1.932104  s :     1.932104
      pz      :     0.013951  p :     0.053499
      px      :     0.039503
      py      :     0.000045
  8 N s       :     3.527206  s :     3.527206
      pz      :     1.186561  p :     2.810441
      px      :     0.479867
      py      :     1.144014
      dz2     :     0.009440  d :     0.186568
      dxz     :     0.086848
      dyz     :     0.001840
      dx2y2   :     0.026570
      dxy     :     0.061869
  9 N s       :     4.648612  s :     4.648612
      pz      :     1.022296  p :     3.207068
      px      :     1.290339
      py      :     0.894434
      dz2     :     0.004269  d :     0.065800
      dxz     :     0.027860
      dyz     :     0.000139
      dx2y2   :     0.008015
      dxy     :     0.025517
 10 Brs       :     8.096717  s :     8.096717
      pz      :     5.886400  p :    16.802001
      px      :     5.080283
      py      :     5.835318
      dz2     :     2.002802  d :    10.003328
      dxz     :     2.007209
      dyz     :     2.000471
      dx2y2   :     2.008730
      dxy     :     1.984116
 11 C s       :     3.641861  s :     3.641861
      pz      :     0.713974  p :     1.740862
      px      :     0.233697
      py      :     0.793191
      dz2     :     0.004800  d :     0.173514
      dxz     :     0.040254
      dyz     :     0.040203
      dx2y2   :     0.080285
      dxy     :     0.007972
 12 O s       :     4.095461  s :     4.095461
      pz      :     1.406645  p :     4.401986
      px      :     1.588909
      py      :     1.406433
      dz2     :     0.002763  d :     0.033933
      dxz     :     0.006137
      dyz     :     0.008956
      dx2y2   :     0.011060
      dxy     :     0.005016
 13 O s       :     4.089930  s :     4.089930
      pz      :     1.783062  p :     4.504308
      px      :     1.340270
      py      :     1.380976
      dz2     :    -0.000358  d :     0.003765
      dxz     :     0.010176
      dyz     :    -0.000320
      dx2y2   :    -0.008403
      dxy     :     0.002670
 14 H s       :     0.652831  s :     0.652831
      pz      :     0.029405  p :     0.072999
      px      :     0.004427
      py      :     0.039167


                     *******************************
                     * LOEWDIN POPULATION ANALYSIS *
                     *******************************

----------------------
LOEWDIN ATOMIC CHARGES
----------------------
   0 C :   -0.116845
   1 C :    0.059342
   2 C :   -0.258287
   3 C :   -0.112885
   4 C :    0.009259
   5 C :   -0.547658
   6 H :   -0.020195
   7 H :    0.004971
   8 N :    0.000004
   9 N :    0.339660
  10 Br:    0.674681
  11 C :   -0.382296
  12 O :    0.123169
  13 O :    0.248369
  14 H :   -0.021289

-------------------------------
LOEWDIN REDUCED ORBITAL CHARGES
-------------------------------
  0 C s       :     2.649145  s :     2.649145
      pz      :     0.745882  p :     2.714546
      px      :     1.029108
      py      :     0.939556
      dz2     :     0.069505  d :     0.753154
      dxz     :     0.094009
      dyz     :     0.048080
      dx2y2   :     0.253643
      dxy     :     0.287918
  1 C s       :     2.781977  s :     2.781977
      pz      :     0.559441  p :     2.599783
      px      :     1.011988
      py      :     1.028354
      dz2     :     0.063317  d :     0.558898
      dxz     :     0.079692
      dyz     :     0.070960
      dx2y2   :     0.174678
      dxy     :     0.170251
  2 C s       :     2.590699  s :     2.590699
      pz      :     0.840201  p :     2.622733
      px      :     0.763208
      py      :     1.019324
      dz2     :     0.101426  d :     1.044855
      dxz     :     0.106215
      dyz     :     0.147379
      dx2y2   :     0.393876
      dxy     :     0.295959
  3 C s       :     2.581850  s :     2.581850
      pz      :     0.776227  p :     2.641687
      px      :     0.954905
      py      :     0.910555
      dz2     :     0.090344  d :     0.889347
      dxz     :     0.144551
      dyz     :     0.113017
      dx2y2   :     0.271485
      dxy     :     0.269951
  4 C s       :     2.616884  s :     2.616884
      pz      :     0.744282  p :     2.664511
      px      :     0.970413
      py      :     0.949815
      dz2     :     0.070948  d :     0.709346
      dxz     :     0.093456
      dyz     :     0.084237
      dx2y2   :     0.204578
      dxy     :     0.256127
  5 C s       :     2.679922  s :     2.679922
      pz      :     0.802285  p :     2.727057
      px      :     0.890415
      py      :     1.034357
      dz2     :     0.107334  d :     1.140679
      dxz     :     0.188697
      dyz     :     0.139375
      dx2y2   :     0.382889
      dxy     :     0.322384
  6 H s       :     0.747914  s :     0.747914
      pz      :     0.067713  p :     0.272281
      px      :     0.083363
      py      :     0.121205
  7 H s       :     0.719738  s :     0.719738
      pz      :     0.066902  p :     0.275291
      px      :     0.093828
      py      :     0.114561
  8 N s       :     2.927046  s :     2.927046
      pz      :     1.007995  p :     3.300427
      px      :     1.285583
      py      :     1.006849
      dz2     :     0.077951  d :     0.772523
      dxz     :     0.259250
      dyz     :     0.004729
      dx2y2   :     0.224363
      dxy     :     0.206231
  9 N s       :     3.235102  s :     3.235102
      pz      :     0.949085  p :     3.140999
      px      :     1.335702
      py      :     0.856212
      dz2     :     0.033781  d :     0.284240
      dxz     :     0.078351
      dyz     :     0.000556
      dx2y2   :     0.103616
      dxy     :     0.067936
 10 Brs       :     7.533865  s :     7.533865
      pz      :     5.744199  p :    16.643532
      px      :     5.160207
      py      :     5.739126
      dz2     :     2.019295  d :    10.147923
      dxz     :     2.039165
      dyz     :     2.001380
      dx2y2   :     2.052083
      dxy     :     2.035998
 11 C s       :     2.564939  s :     2.564939
      pz      :     0.656383  p :     2.434766
      px      :     0.836074
      py      :     0.942309
      dz2     :     0.125607  d :     1.382592
      dxz     :     0.224266
      dyz     :     0.172080
      dx2y2   :     0.487958
      dxy     :     0.372681
 12 O s       :     3.367428  s :     3.367428
      pz      :     1.310933  p :     4.334920
      px      :     1.533899
      py      :     1.490088
      dz2     :     0.020398  d :     0.174482
      dxz     :     0.016342
      dyz     :     0.023951
      dx2y2   :     0.055000
      dxy     :     0.058791
 13 O s       :     3.228497  s :     3.228497
      pz      :     1.576319  p :     4.341146
      px      :     1.385688
      py      :     1.379139
      dz2     :     0.023973  d :     0.181988
      dxz     :     0.033265
      dyz     :     0.002762
      dx2y2   :     0.068898
      dxy     :     0.053090
 14 H s       :     0.606494  s :     0.606494
      pz      :     0.111208  p :     0.414795
      px      :     0.098458
      py      :     0.205129


                      *****************************
                      * MAYER POPULATION ANALYSIS *
                      *****************************

  NA   - Mulliken gross atomic population
  ZA   - Total nuclear charge
  QA   - Mulliken gross atomic charge
  VA   - Mayer's total valence
  BVA  - Mayer's bonded valence
  FA   - Mayer's free valence

  ATOM       NA         ZA         QA         VA         BVA        FA
  0 C      5.4955     6.0000     0.5045     2.0729     2.0729     0.0000
  1 C      7.6600     6.0000    -1.6600     1.6684     1.6684     0.0000
  2 C      4.7759     6.0000     1.2241     0.2859     0.2859     0.0000
  3 C      3.9466     6.0000     2.0534    -2.1027    -2.1027    -0.0000
  4 C      5.4904     6.0000     0.5096    -1.3885    -1.3885     0.0000
  5 C      6.1597     6.0000    -0.1597     1.7595     1.7595     0.0000
  6 H      1.7271     1.0000    -0.7271     0.3178     0.3178    -0.0000
  7 H      1.9856     1.0000    -0.9856     0.0697     0.0697    -0.0000
  8 N      6.5242     7.0000     0.4758     2.0517     2.0517     0.0000
  9 N      7.9215     7.0000    -0.9215     0.9485     0.9485     0.0000
 10 Br    34.9020    35.0000     0.0980     1.0527     1.0527     0.0000
 11 C      5.5562     6.0000     0.4438     1.6459     1.6459     0.0000
 12 O      8.5314     8.0000    -0.5314     1.6526     1.6526     0.0000
 13 O      8.5980     8.0000    -0.5980     1.6575     1.6575     0.0000
 14 H      0.7258     1.0000     0.2742     0.9080     0.9080     0.0000

  Mayer bond orders larger than 0.1
B(  0-C ,  1-C ) :   1.5047 B(  0-C ,  2-C ) :   0.3385 B(  0-C ,  4-C ) :  -0.2447 
B(  0-C ,  5-C ) :   0.2516 B(  0-C ,  6-H ) :   0.1290 B(  1-C ,  2-C ) :   0.4410 
B(  1-C ,  3-C ) :  -0.6904 B(  1-C ,  4-C ) :   0.3100 B(  1-C ,  5-C ) :  -0.2937 
B(  1-C ,  6-H ) :  -0.1444 B(  1-C ,  9-N ) :   0.1445 B(  1-C , 11-C ) :   0.2267 
B(  2-C ,  4-C ) :  -0.7683 B(  2-C ,  5-C ) :  -0.1630 B(  2-C ,  8-N ) :   1.0943 
B(  2-C ,  9-N ) :  -0.7300 B(  3-C ,  4-C ) :  -0.7229 B(  3-C ,  5-C ) :  -0.5523 
B(  3-C ,  7-H ) :   0.2917 B(  3-C ,  8-N ) :  -0.4022 B(  3-C ,  9-N ) :   0.1590 
B(  3-C , 11-C ) :  -0.1682 B(  3-C , 12-O ) :  -0.1627 B(  3-C , 13-O ) :   0.1644 
B(  4-C ,  5-C ) :   0.8812 B(  4-C ,  6-H ) :   0.2755 B(  4-C ,  7-H ) :  -0.6363 
B(  4-C , 11-C ) :  -0.6928 B(  5-C ,  7-H ) :   0.3077 B(  5-C , 10-Br) :   1.0084 
B(  5-C , 11-C ) :   0.2330 B(  8-N ,  9-N ) :   1.1948 B( 11-C , 12-O ) :   1.6714 
B( 11-C , 13-O ) :   0.2804 B( 12-O , 13-O ) :   0.1460 B( 13-O , 14-H ) :   0.9055 


-------
TIMINGS
-------

Total SCF time: 0 days 0 hours 1 min 45 sec 

Total time                  ....     105.401 sec
Sum of individual times     ....     104.382 sec  ( 99.0%)

Fock matrix formation       ....      91.600 sec  ( 86.9%)
  XC integration            ....       8.733 sec  (  9.5% of F)
    Basis function eval.    ....       1.971 sec  ( 22.6% of XC)
    Density eval.           ....       2.137 sec  ( 24.5% of XC)
    XC-Functional eval.     ....       0.215 sec  (  2.5% of XC)
    XC-Potential eval.      ....       2.492 sec  ( 28.5% of XC)
Diagonalization             ....       0.294 sec  (  0.3%)
Density matrix formation    ....       0.262 sec  (  0.2%)
Population analysis         ....       0.051 sec  (  0.0%)
Initial guess               ....       0.663 sec  (  0.6%)
Orbital Transformation      ....       0.000 sec  (  0.0%)
Orbital Orthonormalization  ....       0.000 sec  (  0.0%)
DIIS solution               ....       0.302 sec  (  0.3%)
SOSCF solution              ....       0.586 sec  (  0.6%)
Grid generation             ....      10.623 sec  ( 10.1%)

-------------------------   --------------------
FINAL SINGLE POINT ENERGY     -3102.604147487422
-------------------------   --------------------



------------------------------------------------------------------------------- 
                         Nudged Elastic Band Calculation                       
------------------------------------------------------------------------------- 

Number of images (incl. end points)     ....  14
Number of intermediate images           ....  12
Number of optimized images              ....  12
Optimization of end points before NEB   ....  NO
Number of atoms                         ....  15
Number of (active) degrees of freedom   ....  45
Constrained atoms                       ....  None

-----------------------------------------
  REACTANT (ANGSTROEM)
-----------------------------------------
C     -1.378633    -1.491549    -1.058186 
C      0.032309    -1.313434    -1.110073 
C      0.392278     0.023730    -0.903160 
C     -0.435331     1.166188    -0.660572 
C     -1.794002     0.896653    -0.626763 
C     -2.243141    -0.427152    -0.825587 
H     -1.804043    -2.487005    -1.203715 
H     -2.492695     1.709729    -0.447521 
N      1.785227     0.168010    -0.958522 
N      2.898442     0.157717    -1.022072 
Br    -4.140853    -0.727317    -0.764847 
C     -0.001476     2.575934    -0.446486 
O     -0.750425     3.506775    -0.252394 
O      1.348859     2.729925    -0.512916 
H      1.532573     3.672886    -0.371075 

-----------------------------------------
  PRODUCT (ANGSTROEM)
-----------------------------------------
C     -1.889616    -1.508725    -1.054805 
C     -0.560865    -1.119457    -1.088232 
C     -0.100712     0.032384    -0.922510 
C     -0.824970     1.190702    -0.664935 
C     -2.212664     0.918636    -0.606435 
C     -2.710277    -0.383286    -0.795560 
H     -2.297459    -2.506362    -1.198028 
H     -2.895573     1.743532    -0.410303 
N      4.781012     0.121937    -0.509289 
N      5.195330     0.080876    -1.532313 
Br    -4.605581    -0.664277    -0.699632 
C     -0.300259     2.565510    -0.464950 
O     -0.987921     3.539451    -0.243867 
O      1.049938     2.612634    -0.557791 
H      1.308717     3.537546    -0.415250 



----------------------
NEB settings
----------------------
Method type                             ....  climbing image
Threshold for climbing image            ....  2.00e-02 Eh/Bohr 
Free endpoints                          ....  off 
Tangent type                            ....  improved 
Number of intermediate images           ....  12 
Number of images free to move           ....  12 
Spring type for image distribution      ....  distance between adjacent images 
Spring constant                         ....  1.00e-01 Eh/Bohr^2 
Spring force perp. to the path          ....  tan 
Generation of initial path              ....  image dependent pair potential 
Initial path via TS guess               ....  off 

Minimization of RMSD: Rotation          ....  always 
Minimization of RMSD: Translation type  ....  centroid 
Center fixed to origin                  ....  true 

Reparametrization of the path           ....  on reset 
               Every 0 iterations
               Type of interpolation    ....  linear
Convergence thresholds:
Convergence monitored for               ....  all images
Scaling factor                          ....  100.00

Convergence parameters for regular images:
               Max(|Fp|)                ....  1.00e-01 Eh/Bohr
               RMS(Fp)                  ....  5.00e-02 Eh/Bohr

Convergence parameters for climbing image:
               Max(|F|)                 ....  1.00e-03 Eh/Bohr
               RMS(F)                   ....  5.00e-04 Eh/Bohr
Optimization method:
Method                                  ....  L-BFGS (global)
Max. iterations                         ....  1000 
Step size                               ....  1.00 
Maximum allowed step size               ....  0.10 Bohr
Turn on L-BFGS                          ....  0.0000 Eh/Bohr

LBFGS parameters: 
               Memory                   ....  7 
Generation of  the initial path:
Minimize RMSD between reactant and product configurations     .... done
       RMSD before minimization         ....  2.0189 Bohr
       RMSD after minimization          ....  2.0187 Bohr
Performing linear interpolation         ....  done
Interpolation using                     ....  IDPP (Image Dependent Pair Potential)
IDPP-Settings:
       Convergence tolerance            ....  0.0100 1/Ang.^3
       Max. numer of iterations         ....    7000
       Spring constant                  ....  1.0000 1/Ang.^4
       Time step                        ....  0.0100 fs
       Max. movement per iteration      ....  0.0500 Ang.
       Full print                       ....  false 
IDPP successfuly converged in 73 iterations
Displacement along initial path:              7.8393 Bohr
Writing initial trajectory to file      ....  2-HOOC-4-Br-C6H2-N2-NEB-TS_initial_path.trj



----------------------
NEB OPTIMIZATION      
----------------------

Following output files will be written:
Energy profile during opt. written to    ....  2-HOOC-4-Br-C6H2-N2-NEB-TS.interp
Optimization log-file                    ....  2-HOOC-4-Br-C6H2-N2-NEB-TS.log
Current trajectory will be written to    ....  2-HOOC-4-Br-C6H2-N2-NEB-TS_MEP.trj
       and to allxyz file                ....  2-HOOC-4-Br-C6H2-N2-NEB-TS_MEP.allxyz
       and individual images to xyz file ....  2-HOOC-4-Br-C6H2-N2-NEB-TS_im{NIm}.xyz
Trajectory history will be written to    ....  2-HOOC-4-Br-C6H2-N2-NEB-TS_MEP_ALL.trj
Converged CI will be written to          ....  2-HOOC-4-Br-C6H2-N2-NEB-TS_CI-NEB_converged.xyz
Converged TS will be written to          ....  2-HOOC-4-Br-C6H2-N2-NEB-TS.xyz

Single point energy and gradient calculation of reactant and
product configurations (have to be performed only once)
Properties of fixed NEB end points:
               Reactant:
                         E               ....  -3102.604147 Eh
                         RMS(F)          ....      0.000436 Eh/Bohr
                         MAX(|F|)        ....      0.002445 Eh/Bohr
               Product:
                         E               ....  -3102.640176 Eh
                         RMS(F)          ....      0.000303 Eh/Bohr
                         MAX(|F|)        ....      0.000961 Eh/Bohr



Starting iterations:

Optim.  Iteration  HEI  E(HEI)-E(0)  max(|Fp|)   RMS(Fp)    dS
Switch-on CI threshold               0.020000 
List of participating nodes    ...  2-HOOC-4-Br-C6H2-N2-NEB-TS.hostnames
LBFGS(G)     0      2    0.012315    0.112389   0.028509  7.8392       
LBFGS(G)     1      2    0.012297    0.112310   0.028485  7.8392       
LBFGS(G)     2      1    0.008102    0.034114   0.009184  7.8514       
LBFGS(G)     3      1    0.007425    0.055466   0.012288  7.8610       
LBFGS(G)     4      1    0.007000    0.017041   0.005878  7.8648       

Image  1 will be converted to a climbing image in the next iteration (max(|Fp|) < 0.0200) 

Optim.  Iteration  CI   E(CI)-E(0)   max(|Fp|)   RMS(Fp)    dS     max(|FCI|)   RMS(FCI)
Convergence thresholds               0.100000   0.050000            0.001000    0.000500 
LBFGS(G)     5      1    0.006732    0.015242   0.003942  7.8671    0.013771    0.005519       
LBFGS(G)     6      1    0.006350    0.014539   0.004184  7.8721    0.012797    0.005023       
LBFGS(G)     7      1    0.005417    0.023027   0.006108  7.9042    0.010315    0.006067       
LBFGS(G)     8      1    0.004872    0.032276   0.006934  7.9562    0.029729    0.010098       
LBFGS(G)     9      1    0.004617    0.010950   0.003316  7.9767    0.017515    0.005347       
LBFGS(G)    10      1    0.004625    0.010063   0.002698  7.9775    0.014074    0.004452       
LBFGS(G)    11      1    0.004650    0.012098   0.003432  7.9881    0.011365    0.003719       
LBFGS(G)    12      1    0.005162    0.019433   0.005462  8.0592    0.025392    0.008424       
LBFGS(G)    13      1    0.005895    0.035007   0.006509  8.1548    0.031259    0.010644       
LBFGS(G)    14      1    0.005423    0.007632   0.002445  8.1291    0.009168    0.003472       
LBFGS(G)    15      1    0.005330    0.006076   0.002066  8.1236    0.006603    0.002935       
LBFGS(G)    16      1    0.005150    0.010625   0.002210  8.1102    0.011402    0.003764       
LBFGS(G)    17      1    0.004931    0.045306   0.006128  8.0960    0.002549    0.001821       
LBFGS(G)    18      1    0.004910    0.016174   0.002772  8.0911    0.005378    0.002268       
LBFGS(G)    19      1    0.004890    0.005669   0.001687  8.0902    0.002393    0.001676       
LBFGS(G)    20      1    0.004875    0.007239   0.001610  8.0897    0.002417    0.001434       
LBFGS(G)    21      1    0.004841    0.011544   0.001814  8.0885    0.004807    0.001743       
LBFGS(G)    22      1    0.004838    0.014509   0.002908  8.0876    0.005926    0.002436       
LBFGS(G)    23      1    0.004819    0.005345   0.001438  8.0884    0.003166    0.001470       
LBFGS(G)    24      1    0.004797    0.003812   0.000988  8.0906    0.001617    0.000959       
LBFGS(G)    25      1    0.004762    0.007386   0.001313  8.0968    0.002345    0.001110       
LBFGS(G)    26      1    0.004714    0.006431   0.001297  8.1191    0.002775    0.001187       
LBFGS(G)    27      1    0.004768    0.014741   0.003385  8.2118    0.010377    0.003572       
LBFGS(G)    28      1    0.004939    0.018261   0.003794  8.3600    0.008556    0.003564       
LBFGS(G)    29      1    0.005446    0.077054   0.011454  8.5324    0.035466    0.011334       
LBFGS(G)    30      1    0.005501    0.024860   0.005147  8.6890    0.023848    0.007226       
LBFGS(G)    31      1    0.005402    0.007224   0.001827  8.6938    0.007554    0.003693       
LBFGS(G)    32      1    0.005284    0.011008   0.002054  8.6414    0.007308    0.003401       
LBFGS(G)    33      1    0.004865    0.021371   0.003908  8.4294    0.007325    0.002401       
LBFGS(G)    34      1    0.004844    0.010107   0.002442  8.4140    0.010584    0.003149       
LBFGS(G)    35      1    0.004786    0.005199   0.001264  8.3866    0.006168    0.001897       
LBFGS(G)    36      1    0.004706    0.002687   0.000891  8.3397    0.002269    0.001174       
LBFGS(G)    37      1    0.004650    0.002735   0.000830  8.3072    0.001773    0.000938       
LBFGS(G)    38      1    0.004693    0.032879   0.005306  8.2934    0.015579    0.005478       
LBFGS(G)    39      1    0.004619    0.004420   0.000909  8.3012    0.002061    0.000848       
LBFGS(G)    40      1    0.004618    0.002673   0.000614  8.2989    0.001233    0.000719       
LBFGS(G)    41      1    0.004647    0.004022   0.001001  8.2957    0.003760    0.001493       
LBFGS(G)    42      1    0.004701    0.013092   0.002916  8.3033    0.007485    0.002392       
LBFGS(G)    43      1    0.004685    0.004778   0.001077  8.3027    0.004956    0.001625       
LBFGS(G)    44      1    0.004698    0.002586   0.000686  8.3076    0.002761    0.001190       
LBFGS(G)    45      1    0.004724    0.004820   0.000982  8.3165    0.003288    0.001279       
LBFGS(G)    46      1    0.004851    0.005060   0.001246  8.3691    0.003141    0.001920       
LBFGS(G)    47      1    0.004789    0.026041   0.005330  8.3780    0.003700    0.001791       
LBFGS(G)    48      1    0.004752    0.008703   0.001555  8.3479    0.002242    0.001162       
LBFGS(G)    49      1    0.004730    0.004254   0.000921  8.3442    0.002017    0.001014       
LBFGS(G)    50      1    0.004692    0.002689   0.000561  8.3457    0.001717    0.000845       
LBFGS(G)    51      1    0.004657    0.003863   0.000834  8.3519    0.001325    0.000886       
LBFGS(G)    52      1    0.004653    0.017881   0.003431  8.3829    0.004084    0.001601       
LBFGS(G)    53      1    0.004757    0.009560   0.001991  8.4305    0.006204    0.002358       
LBFGS(G)    54      1    0.004742    0.009499   0.001857  8.4321    0.006146    0.002133       
LBFGS(G)    55      1    0.004713    0.005809   0.001223  8.4253    0.004901    0.001723       
LBFGS(G)    56      1    0.004663    0.002144   0.000450  8.4087    0.002260    0.000996       
LBFGS(G)    57      1    0.004652    0.003249   0.000502  8.4078    0.001764    0.000795       
LBFGS(G)    58      1    0.004624    0.008474   0.001161  8.4097    0.002016    0.000833       
LBFGS(G)    59      1    0.004618    0.003339   0.000714  8.4129    0.001096    0.000620       
LBFGS(G)    60      1    0.004619    0.004246   0.000676  8.4121    0.001457    0.000574       
LBFGS(G)    61      1    0.004623    0.004524   0.000909  8.4142    0.002856    0.001040       
LBFGS(G)    62      1    0.004625    0.002975   0.000824  8.4202    0.001336    0.000672       
LBFGS(G)    63      1    0.004629    0.002159   0.000620  8.4262    0.001582    0.000704       
LBFGS(G)    64      1    0.004648    0.002868   0.000770  8.4482    0.001412    0.000879       
LBFGS(G)    65      1    0.004683    0.009081   0.001651  8.4885    0.006842    0.002301       
LBFGS(G)    66      1    0.004707    0.004571   0.001057  8.5475    0.003319    0.001290       
LBFGS(G)    67      1    0.004690    0.010760   0.002024  8.5529    0.002325    0.001143       
LBFGS(G)    68      1    0.004707    0.006928   0.001368  8.6062    0.003351    0.001573       
LBFGS(G)    69      1    0.004723    0.010777   0.002381  8.7675    0.002826    0.001697       
LBFGS(G)    70      1    0.004704    0.004231   0.000940  8.7354    0.002435    0.001323       
LBFGS(G)    71      1    0.004682    0.003216   0.000653  8.8028    0.002673    0.001134       
LBFGS(G)    72      1    0.004649    0.006105   0.001212  9.0083    0.003008    0.001269       
LBFGS(G)    73      1    0.004620    0.013809   0.003002  9.2531    0.002937    0.001385       
LBFGS(G)    74      1    0.004599    0.013881   0.002778  9.4810    0.003025    0.001474       
LBFGS(G)    75      1    0.004595    0.017650   0.004029  9.7808    0.004171    0.001684       
LBFGS(G)    76      1    0.004621    0.023477   0.004702  10.1164    0.005601    0.002017       
LBFGS(G)    77      1    0.004707    0.033333   0.005624  10.4836    0.010806    0.003491       
LBFGS(G)    78      1    0.004830    0.055611   0.008954  10.8829    0.014446    0.004750       
LBFGS(G)    79      1    0.004955    0.053276   0.008122  11.2841    0.014041    0.004700       
LBFGS(G)    80      1    0.005035    0.046203   0.010152  11.6974    0.005020    0.002537       
LBFGS(G)    81      1    0.005172    0.038561   0.007673  12.0812    0.005900    0.002692       
LBFGS(G)    82      1    0.005323    0.049048   0.010000  12.5026    0.005131    0.002706       
LBFGS(G)    83      1    0.005479    0.061020   0.012360  12.9270    0.004479    0.002795       
LBFGS(G)    84      1    0.005625    0.068753   0.013145  13.3273    0.004933    0.002905       
LBFGS(G)    85      1    0.005772    0.074518   0.013709  13.7126    0.008096    0.003856       
LBFGS(G)    86      1    0.005872    0.046166   0.008818  14.0372    0.010459    0.004260       
LBFGS(G)    87      1    0.005956    0.053558   0.009644  14.4088    0.008847    0.004042       
LBFGS(G)    88      1    0.005987    0.046336   0.007804  14.7486    0.007175    0.003567       
LBFGS(G)    89      1    0.006064    0.047294   0.009192  15.1084    0.010026    0.005254       
LBFGS(G)    90      1    0.006093    0.056416   0.010202  15.4673    0.010982    0.005645       
Warning: Negative curvature. Reseting optimizer..
LBFGS(G)    91      1    0.006093    0.056416   0.010202  15.4673    0.010976    0.005643       
LBFGS(G)    92      1    0.006019    0.026929   0.005108  15.4452    0.009005    0.004119       
LBFGS(G)    93      1    0.005888    0.025058   0.004607  15.4070    0.006857    0.003778       
LBFGS(G)    94      1    0.005785    0.024577   0.005378  15.3951    0.007870    0.004011       
LBFGS(G)    95      1    0.005244    0.040116   0.006432  15.3519    0.010357    0.003898       
LBFGS(G)    96      1    0.004801    0.028707   0.006876  15.3314    0.010115    0.003372       
LBFGS(G)    97      1    0.004492    0.031880   0.005699  15.3408    0.010961    0.003384       
LBFGS(G)    98      1    0.004277    0.040741   0.006164  15.3711    0.010320    0.003724       
LBFGS(G)    99      1    0.004227    0.045389   0.007391  15.4348    0.017428    0.005518       
LBFGS(G)   100      1    0.004288    0.051804   0.008617  15.5208    0.021497    0.006738       
LBFGS(G)   101      1    0.004420    0.048669   0.007363  15.6164    0.021982    0.006971       
LBFGS(G)   102      1    0.004712    0.133341   0.018357  15.7037    0.035531    0.010877       
LBFGS(G)   103      1    0.004551    0.012964   0.003158  15.7616    0.018786    0.005974       
LBFGS(G)   104      1    0.004507    0.006946   0.001723  15.7701    0.012990    0.005161       
LBFGS(G)   105      1    0.004540    0.036254   0.005921  15.8375    0.030101    0.009147       
LBFGS(G)   106      1    0.004824    0.065442   0.011033  15.9358    0.043753    0.014020       
LBFGS(G)   107      1    0.005053    0.067465   0.013603  16.0603    0.046844    0.015316       
LBFGS(G)   108      1    0.004839    0.034532   0.006389  16.1911    0.014838    0.004676       
LBFGS(G)   109      1    0.004765    0.029558   0.005541  16.1109    0.008077    0.003101       
LBFGS(G)   110      1    0.004819    0.019122   0.003758  16.1258    0.010327    0.003394       
Warning: maximum angle between images (3 - 4 - 5): 112.06
LBFGS(G)   111      1    0.004898    0.016233   0.002767  16.0883    0.006830    0.002471       
LBFGS(G)   112      1    0.005123    0.012425   0.002122  16.0276    0.007896    0.003175       
LBFGS(G)   113      1    0.005281    0.037917   0.007272  15.9634    0.015113    0.005321       
LBFGS(G)   114      1    0.005418    0.040748   0.006586  16.0074    0.012792    0.005117       
LBFGS(G)   115      1    0.005714    0.021493   0.003869  16.1336    0.012915    0.006437       
LBFGS(G)   116      1    0.006156    0.025189   0.004287  16.3338    0.017252    0.007808       
LBFGS(G)   117      1    0.006657    0.023064   0.004970  16.5382    0.018229    0.008229       
LBFGS(G)   118      1    0.007416    0.025169   0.005831  16.7950    0.019749    0.008806       
LBFGS(G)   119      1    0.008455    0.043154   0.005444  17.0744    0.020558    0.008975       
LBFGS(G)   120      1    0.008991    0.020725   0.003583  17.1975    0.021065    0.008813       
LBFGS(G)   121      1    0.009247    0.017249   0.002706  17.2430    0.018978    0.008525       
LBFGS(G)   122      1    0.011179    0.057234   0.008351  17.5884    0.020956    0.008667       
LBFGS(G)   123      1    0.011030    0.071049   0.008143  17.5251    0.014115    0.007690       
LBFGS(G)   124      1    0.010527    0.017939   0.003501  17.4353    0.015920    0.007504       
LBFGS(G)   125      1    0.010295    0.006969   0.001749  17.4082    0.013437    0.007068       
LBFGS(G)   126      1    0.008759    0.021373   0.004344  17.3163    0.012874    0.006088       
LBFGS(G)   127      1    0.006355    0.023327   0.004850  17.2426    0.011398    0.005749       
LBFGS(G)   128      1    0.004061    0.093284   0.016991  17.2487    0.044363    0.013572       
LBFGS(G)   129      1    0.005124    0.008272   0.001851  17.2293    0.008293    0.004874       
LBFGS(G)   130      1    0.004866    0.004881   0.000757  17.2385    0.009699    0.004721       
LBFGS(G)   131      1    0.004009    0.033611   0.006603  17.3571    0.037427    0.011131       
LBFGS(G)   132      1    0.003827    0.014017   0.003273  17.3458    0.012532    0.005533       

Possible intermediate minimum found at image(s): 5 
  => have a look at the .interp file.
  => it is often a good idea to divide the path calculation into smaller fragments. 

LBFGS(G)   133      1    0.003981    0.007030   0.001584  17.3841    0.020170    0.006671       
LBFGS(G)   134      1    0.004085    0.008153   0.001872  17.3980    0.021772    0.006927       
LBFGS(G)   135      1    0.005140    0.017895   0.003466  17.5229    0.033137    0.010262       
LBFGS(G)   136      1    0.005682    0.011434   0.002546  17.7003    0.007984    0.004551       
LBFGS(G)   137      1    0.006227    0.015168   0.003709  17.9225    0.012074    0.006315       
LBFGS(G)   138      1    0.006329    0.040001   0.006723  18.1433    0.032245    0.012392       
LBFGS(G)   139      1    0.005840    0.007575   0.001785  18.0647    0.010215    0.004811       
LBFGS(G)   140      1    0.005719    0.004672   0.000958  18.0853    0.009699    0.004814       
Warning: maximum angle between images (5 - 6 - 7): 143.85
LBFGS(G)   141      1    0.005292    0.032259   0.007059  18.2545    0.012615    0.006099       
LBFGS(G)   142      1    0.005229    0.028741   0.006008  18.3034    0.011131    0.005733       
LBFGS(G)   143      1    0.005806    0.020091   0.003357  18.6150    0.010777    0.006518       
LBFGS(G)   144      1    0.005912    0.109056   0.014575  18.7789    0.012544    0.006410       
LBFGS(G)   145      1    0.005128    0.149995   0.017191  18.4902    0.016103    0.006014       
LBFGS(G)   146      1    0.005062    0.019596   0.002607  18.5469    0.005268    0.003098       
LBFGS(G)   147      1    0.005064    0.004379   0.000984  18.5983    0.003353    0.002580       
LBFGS(G)   148      1    0.005656    0.021240   0.002598  18.8549    0.008181    0.004477       
LBFGS(G)   149      1    0.006823    0.024691   0.004225  19.2155    0.015616    0.007135       
Warning: Negative curvature. Reseting optimizer..
LBFGS(G)   150      1    0.006823    0.024692   0.004225  19.2155    0.015616    0.007135       
LBFGS(G)   151      1    0.006611    0.009575   0.001588  19.2305    0.013427    0.006245       
LBFGS(G)   152      1    0.006115    0.024435   0.003847  19.2772    0.007176    0.004447       
LBFGS(G)   153      1    0.005712    0.037966   0.005667  19.3950    0.009183    0.004517       
LBFGS(G)   154      1    0.005877    0.049152   0.006985  19.5844    0.011823    0.007077       
LBFGS(G)   155      1    0.006231    0.060127   0.007290  19.7889    0.016961    0.008951       
LBFGS(G)   156      1    0.006655    0.057554   0.007262  20.0019    0.020408    0.010521       
LBFGS(G)   157      1    0.006872    0.053368   0.006651  20.2108    0.022246    0.011457       
LBFGS(G)   158      1    0.006917    0.046377   0.006833  20.4472    0.023143    0.012000       
LBFGS(G)   159      1    0.007043    0.041335   0.008157  20.6910    0.024088    0.012708       
LBFGS(G)   160      1    0.006984    0.053669   0.009018  20.9294    0.023982    0.013178       
LBFGS(G)   161      1    0.006929    0.062456   0.009761  21.1699    0.023863    0.013437       
Warning: Negative curvature. Reseting optimizer..
LBFGS(G)   162      1    0.006929    0.062456   0.009761  21.1699    0.023863    0.013438       
LBFGS(G)   163      1    0.006585    0.040867   0.006356  21.1630    0.022709    0.012636       
LBFGS(G)   164      1    0.004805    0.095658   0.012896  21.1824    0.021820    0.010441       
LBFGS(G)   165      1    0.004132    0.072410   0.010716  21.2015    0.021977    0.009236       
LBFGS(G)   166      1    0.003179    0.060180   0.009108  21.2865    0.018979    0.007200       
LBFGS(G)   167      1    0.003384    0.034520   0.005277  21.4437    0.014843    0.007806       
LBFGS(G)   168      1    0.004213    0.054857   0.006289  21.6116    0.018904    0.009746       
LBFGS(G)   169      1    0.005660    0.061100   0.008081  21.7946    0.026146    0.012581       
LBFGS(G)   170      1    0.007134    0.068935   0.009878  21.9993    0.030591    0.014628       
Warning: maximum angle between images (5 - 6 - 7): 163.06
LBFGS(G)   171      1    0.008574    0.049002   0.008645  22.2110    0.033469    0.016032       
LBFGS(G)   172      1    0.010152    0.044225   0.009119  22.4447    0.035975    0.017368       
LBFGS(G)   173      1    0.010657    0.030050   0.005373  22.6852    0.033778    0.016711       
LBFGS(G)   174      1    0.011446    0.031316   0.005654  22.9538    0.032437    0.016704       
Warning: Negative curvature. Reseting optimizer..
LBFGS(G)   175      1    0.011446    0.031317   0.005654  22.9538    0.032437    0.016704       
LBFGS(G)   176      1    0.010732    0.020303   0.004077  22.9779    0.030197    0.015790       
LBFGS(G)   177      1    0.006184    0.075108   0.013021  23.1481    0.011742    0.009223       
LBFGS(G)   178      1    0.004556    0.052605   0.009163  23.4681    0.014879    0.008110       
LBFGS(G)   179      1    0.004900    0.029370   0.005737  23.7897    0.015979    0.009592       
LBFGS(G)   180      1    0.005909    0.048479   0.006208  24.1224    0.020154    0.011299       
LBFGS(G)   181      1    0.005122    0.059421   0.009973  24.2161    0.015257    0.008572       
LBFGS(G)   182      1    0.005401    0.103699   0.017477  24.5188    0.015451    0.007855       
LBFGS(G)   183      1    0.006665    0.091836   0.017581  24.7957    0.016473    0.010672       
LBFGS(G)   184      1    0.009316    0.095486   0.017698  25.1075    0.025675    0.015770       
LBFGS(G)   185      1    0.013143    0.107445   0.017624  25.4487    0.037933    0.021447       
LBFGS(G)   186      1    0.017877    0.115994   0.018010  25.8082    0.049853    0.027107       
LBFGS(G)   187      1    0.023028    0.112131   0.019397  26.1975    0.060456    0.032246       
LBFGS(G)   188      1    0.026198    0.097703   0.017123  26.5167    0.065039    0.034813       
LBFGS(G)   189      1    0.020403    0.058261   0.011403  26.6046    0.048753    0.028474       
LBFGS(G)   190      1    0.012550    0.023425   0.005353  26.6737    0.026607    0.018828       
LBFGS(G)   191      1    0.007701    0.038806   0.004904  26.7177    0.016646    0.010579       
LBFGS(G)   192      1    0.006152    0.030315   0.004043  26.7615    0.010823    0.007035       
LBFGS(G)   193      1    0.005903    0.083668   0.009983  26.7192    0.014649    0.007878       
LBFGS(G)   194      1    0.007288    0.119393   0.014590  26.7992    0.018790    0.012835       
LBFGS(G)   195      1    0.008715    0.104341   0.012675  26.8681    0.022908    0.015979       
LBFGS(G)   196      1    0.008966    0.082909   0.012217  27.0395    0.025155    0.015806       
LBFGS(G)   197      1    0.008360    0.048565   0.007055  27.2027    0.024694    0.013964       
LBFGS(G)   198      1    0.007393    0.053847   0.008151  27.3962    0.021120    0.011326       
LBFGS(G)   199      1    0.006834    0.063025   0.008684  27.6676    0.017361    0.009305       
LBFGS(G)   200      1    0.006348    0.034901   0.006173  27.8714    0.012850    0.007560       
Warning: maximum angle between images (5 - 6 - 7): 141.40
[...]
----------------

  NO   OCC          E(Eh)            E(eV) 
   0   2.0000    -482.892336    -13140.1685 
   1   2.0000     -62.543353     -1701.8911 
   2   2.0000     -56.360414     -1533.6448 
   3   2.0000     -56.356997     -1533.5518 
   4   2.0000     -56.356841     -1533.5476 
   5   2.0000     -19.231311      -523.3106 
   6   2.0000     -19.170884      -521.6663 
   7   2.0000     -14.525294      -395.2534 
   8   2.0000     -14.500168      -394.5696 
   9   2.0000     -10.358421      -281.8670 
  10   2.0000     -10.286559      -279.9115 
  11   2.0000     -10.268354      -279.4161 
  12   2.0000     -10.255209      -279.0584 
  13   2.0000     -10.233279      -278.4617 
  14   2.0000     -10.227299      -278.2990 
  15   2.0000     -10.182916      -277.0912 
  16   2.0000      -8.723956      -237.3909 
  17   2.0000      -6.553831      -178.3388 
  18   2.0000      -6.541486      -178.0029 
  19   2.0000      -6.541007      -177.9898 
  20   2.0000      -2.664213       -72.4969 
  21   2.0000      -2.660735       -72.4023 
  22   2.0000      -2.660393       -72.3930 
  23   2.0000      -2.650545       -72.1250 
  24   2.0000      -2.650537       -72.1248 
  25   2.0000      -1.189638       -32.3717 
  26   2.0000      -1.145929       -31.1823 
  27   2.0000      -1.056005       -28.7354 
  28   2.0000      -0.912960       -24.8429 
  29   2.0000      -0.840481       -22.8707 
  30   2.0000      -0.798193       -21.7199 
  31   2.0000      -0.772565       -21.0226 
  32   2.0000      -0.708197       -19.2710 
  33   2.0000      -0.672620       -18.3029 
  34   2.0000      -0.624137       -16.9836 
  35   2.0000      -0.600706       -16.3460 
  36   2.0000      -0.547922       -14.9097 
  37   2.0000      -0.533813       -14.5258 
  38   2.0000      -0.532355       -14.4861 
  39   2.0000      -0.521578       -14.1929 
  40   2.0000      -0.507644       -13.8137 
  41   2.0000      -0.487326       -13.2608 
  42   2.0000      -0.482994       -13.1429 
  43   2.0000      -0.468822       -12.7573 
  44   2.0000      -0.440187       -11.9781 
  45   2.0000      -0.417070       -11.3490 
  46   2.0000      -0.412302       -11.2193 
  47   2.0000      -0.388842       -10.5809 
  48   2.0000      -0.361313        -9.8318 
  49   2.0000      -0.339108        -9.2276 
  50   2.0000      -0.321057        -8.7364 
  51   2.0000      -0.302822        -8.2402 
  52   2.0000      -0.284973        -7.7545 
  53   2.0000      -0.271173        -7.3790 
  54   2.0000      -0.228876        -6.2280 
  55   0.0000      -0.112960        -3.0738 
  56   0.0000      -0.107004        -2.9117 
  57   0.0000      -0.076748        -2.0884 
  58   0.0000      -0.028460        -0.7744 
  59   0.0000      -0.020955        -0.5702 
  60   0.0000      -0.018580        -0.5056 
  61   0.0000      -0.001828        -0.0497 
  62   0.0000       0.010251         0.2789 
  63   0.0000       0.017488         0.4759 
  64   0.0000       0.021052         0.5729 
  65   0.0000       0.022089         0.6011 
  66   0.0000       0.031677         0.8620 
  67   0.0000       0.041965         1.1419 
  68   0.0000       0.049643         1.3509 
  69   0.0000       0.061898         1.6843 
  70   0.0000       0.063523         1.7286 
  71   0.0000       0.068140         1.8542 
  72   0.0000       0.068399         1.8612 
  73   0.0000       0.072185         1.9643 
  74   0.0000       0.079809         2.1717 
  75   0.0000       0.088393         2.4053 
  76   0.0000       0.093786         2.5520 
  77   0.0000       0.096421         2.6237 
  78   0.0000       0.103017         2.8032 
  79   0.0000       0.103759         2.8234 
  80   0.0000       0.112497         3.0612 
  81   0.0000       0.114302         3.1103 
  82   0.0000       0.120124         3.2687 
  83   0.0000       0.122192         3.3250 
  84   0.0000       0.131938         3.5902 
  85   0.0000       0.133095         3.6217 
  86   0.0000       0.144821         3.9408 
  87   0.0000       0.151199         4.1143 
  88   0.0000       0.154960         4.2167 
  89   0.0000       0.165046         4.4911 
  90   0.0000       0.168232         4.5778 
  91   0.0000       0.170963         4.6521 
  92   0.0000       0.177405         4.8274 
  93   0.0000       0.184404         5.0179 
  94   0.0000       0.185579         5.0499 
  95   0.0000       0.187949         5.1144 
  96   0.0000       0.193558         5.2670 
  97   0.0000       0.204341         5.5604 
  98   0.0000       0.206647         5.6232 
  99   0.0000       0.207945         5.6585 
 100   0.0000       0.209941         5.7128 
 101   0.0000       0.214568         5.8387 
 102   0.0000       0.223627         6.0852 
 103   0.0000       0.230729         6.2785 
 104   0.0000       0.234703         6.3866 
 105   0.0000       0.239018         6.5040 
 106   0.0000       0.247346         6.7306 
 107   0.0000       0.253913         6.9093 
 108   0.0000       0.256590         6.9822 
 109   0.0000       0.265567         7.2265 
 110   0.0000       0.270540         7.3618 
 111   0.0000       0.274819         7.4782 
 112   0.0000       0.276546         7.5252 
 113   0.0000       0.283589         7.7169 
 114   0.0000       0.287168         7.8142 
 115   0.0000       0.292431         7.9574 
 116   0.0000       0.298763         8.1298 
 117   0.0000       0.301997         8.2177 
 118   0.0000       0.305492         8.3129 
 119   0.0000       0.316592         8.6149 
 120   0.0000       0.323462         8.8018 
 121   0.0000       0.330600         8.9961 
 122   0.0000       0.345542         9.4027 
 123   0.0000       0.349243         9.5034 
 124   0.0000       0.359875         9.7927 
 125   0.0000       0.373952        10.1757 
 126   0.0000       0.377865        10.2822 
 127   0.0000       0.383766        10.4428 
 128   0.0000       0.384494        10.4626 
 129   0.0000       0.400861        10.9080 
 130   0.0000       0.408736        11.1223 
 131   0.0000       0.418255        11.3813 
 132   0.0000       0.446131        12.1398 
 133   0.0000       0.446829        12.1588 
 134   0.0000       0.458802        12.4846 
 135   0.0000       0.469755        12.7827 
 136   0.0000       0.479460        13.0468 
 137   0.0000       0.484371        13.1804 
 138   0.0000       0.496720        13.5164 
 139   0.0000       0.500425        13.6173 
 140   0.0000       0.504450        13.7268 
 141   0.0000       0.515200        14.0193 
 142   0.0000       0.520578        14.1657 
 143   0.0000       0.528052        14.3690 
 144   0.0000       0.540335        14.7033 
 145   0.0000       0.543072        14.7777 
 146   0.0000       0.557751        15.1772 
 147   0.0000       0.559341        15.2204 
 148   0.0000       0.562145        15.2967 
 149   0.0000       0.570298        15.5186 
 150   0.0000       0.575676        15.6649 
 151   0.0000       0.584878        15.9153 
 152   0.0000       0.586822        15.9682 
 153   0.0000       0.591573        16.0975 
 154   0.0000       0.597407        16.2563 
 155   0.0000       0.607308        16.5257 
 156   0.0000       0.620957        16.8971 
 157   0.0000       0.622753        16.9460 
 158   0.0000       0.634194        17.2573 
 159   0.0000       0.638949        17.3867 
 160   0.0000       0.649379        17.6705 
 161   0.0000       0.663625        18.0582 
 162   0.0000       0.678672        18.4676 
 163   0.0000       0.681667        18.5491 
 164   0.0000       0.693728        18.8773 
 165   0.0000       0.705237        19.1905 
 166   0.0000       0.707814        19.2606 
 167   0.0000       0.713395        19.4125 
 168   0.0000       0.714208        19.4346 
 169   0.0000       0.723603        19.6902 
 170   0.0000       0.726217        19.7614 
 171   0.0000       0.737757        20.0754 
 172   0.0000       0.743251        20.2249 
 173   0.0000       0.755699        20.5636 
 174   0.0000       0.761753        20.7283 
 175   0.0000       0.762737        20.7551 
 176   0.0000       0.772433        21.0190 
 177   0.0000       0.774187        21.0667 
 178   0.0000       0.779540        21.2124 
 179   0.0000       0.796407        21.6713 
 180   0.0000       0.808593        22.0029 
 181   0.0000       0.823275        22.4024 
 182   0.0000       0.827901        22.5283 
 183   0.0000       0.833308        22.6755 
 184   0.0000       0.842652        22.9297 
 185   0.0000       0.857893        23.3445 
 186   0.0000       0.864410        23.5218 
 187   0.0000       0.871429        23.7128 
 188   0.0000       0.877001        23.8644 
 189   0.0000       0.890483        24.2313 
 190   0.0000       0.899204        24.4686 
 191   0.0000       0.926720        25.2173 
 192   0.0000       0.939345        25.5609 
 193   0.0000       0.967397        26.3242 
 194   0.0000       0.971110        26.4252 
 195   0.0000       0.972992        26.4765 
 196   0.0000       0.990242        26.9459 
 197   0.0000       1.016894        27.6711 
 198   0.0000       1.028261        27.9804 
 199   0.0000       1.044418        28.4201 
 200   0.0000       1.045865        28.4594 
 201   0.0000       1.056190        28.7404 
 202   0.0000       1.067655        29.0524 
 203   0.0000       1.068298        29.0699 
 204   0.0000       1.088903        29.6306 
 205   0.0000       1.091523        29.7018 
 206   0.0000       1.102304        29.9952 
 207   0.0000       1.124065        30.5874 
 208   0.0000       1.136062        30.9138 
 209   0.0000       1.164707        31.6933 
 210   0.0000       1.169857        31.8334 
 211   0.0000       1.195766        32.5384 
 212   0.0000       1.201916        32.7058 
 213   0.0000       1.209061        32.9002 
 214   0.0000       1.217571        33.1318 
 215   0.0000       1.231455        33.5096 
 216   0.0000       1.243443        33.8358 
 217   0.0000       1.253400        34.1067 
 218   0.0000       1.256250        34.1843 
 219   0.0000       1.265281        34.4301 
 220   0.0000       1.289820        35.0978 
 221   0.0000       1.315683        35.8016 
 222   0.0000       1.323546        36.0155 
 223   0.0000       1.357624        36.9428 
 224   0.0000       1.361336        37.0438 
 225   0.0000       1.392740        37.8984 
 226   0.0000       1.407934        38.3118 
 227   0.0000       1.426007        38.8036 
 228   0.0000       1.428345        38.8672 
 229   0.0000       1.430757        38.9329 
 230   0.0000       1.449626        39.4463 
 231   0.0000       1.468532        39.9608 
 232   0.0000       1.480682        40.2914 
 233   0.0000       1.494363        40.6637 
 234   0.0000       1.500988        40.8440 
 235   0.0000       1.511990        41.1433 
 236   0.0000       1.516408        41.2636 
 237   0.0000       1.523305        41.4512 
 238   0.0000       1.532750        41.7082 
 239   0.0000       1.548231        42.1295 
 240   0.0000       1.564198        42.5640 
 241   0.0000       1.577701        42.9314 
 242   0.0000       1.617907        44.0255 
 243   0.0000       1.627963        44.2991 
 244   0.0000       1.635697        44.5096 
 245   0.0000       1.668820        45.4109 
 246   0.0000       1.671163        45.4746 
 247   0.0000       1.693255        46.0758 
 248   0.0000       1.701607        46.3031 
 249   0.0000       1.723895        46.9096 
 250   0.0000       1.726923        46.9920 
 251   0.0000       1.735323        47.2205 
 252   0.0000       1.750564        47.6353 
 253   0.0000       1.804065        49.0911 
 254   0.0000       1.841944        50.1218 
 255   0.0000       1.858056        50.5603 
 256   0.0000       1.877505        51.0895 
 257   0.0000       1.889599        51.4186 
 258   0.0000       1.911184        52.0060 
 259   0.0000       1.913483        52.0685 
 260   0.0000       1.933280        52.6072 
 261   0.0000       1.941015        52.8177 
 262   0.0000       1.957338        53.2619 
 263   0.0000       1.976829        53.7923 
 264   0.0000       1.979471        53.8641 
 265   0.0000       1.996220        54.3199 
 266   0.0000       2.011526        54.7364 
 267   0.0000       2.025259        55.1101 
 268   0.0000       2.049754        55.7766 
 269   0.0000       2.052740        55.8579 
 270   0.0000       2.058288        56.0089 
 271   0.0000       2.098523        57.1037 
 272   0.0000       2.111014        57.4436 
 273   0.0000       2.135652        58.1140 
 274   0.0000       2.152492        58.5723 
 275   0.0000       2.176843        59.2349 
 276   0.0000       2.191851        59.6433 
 277   0.0000       2.202385        59.9299 
 278   0.0000       2.238590        60.9151 
 279   0.0000       2.286076        62.2073 
 280   0.0000       2.300732        62.6061 
 281   0.0000       2.305412        62.7335 
 282   0.0000       2.346447        63.8501 
 283   0.0000       2.375930        64.6523 
 284   0.0000       2.439748        66.3889 
 285   0.0000       2.525312        68.7172 
 286   0.0000       2.553670        69.4889 
 287   0.0000       2.581862        70.2560 
 288   0.0000       2.633352        71.6571 
 289   0.0000       2.671210        72.6873 
 290   0.0000       2.685572        73.0781 
 291   0.0000       2.734278        74.4035 
 292   0.0000       2.786514        75.8249 
 293   0.0000       2.816417        76.6386 
 294   0.0000       2.829890        77.0052 
 295   0.0000       2.861199        77.8572 
 296   0.0000       2.900568        78.9285 
 297   0.0000       2.942409        80.0670 
 298   0.0000       3.042631        82.7942 
 299   0.0000       3.078158        83.7609 
 300   0.0000       3.109825        84.6226 
 301   0.0000       3.134392        85.2911 
 302   0.0000       3.151429        85.7548 
 303   0.0000       3.289825        89.5207 
 304   0.0000       3.303440        89.8912 
 305   0.0000       3.312863        90.1476 
 306   0.0000       3.355522        91.3084 
 307   0.0000       3.382079        92.0310 
 308   0.0000       3.416969        92.9805 
 309   0.0000       3.470336        94.4326 
 310   0.0000       3.499717        95.2321 
 311   0.0000       3.575123        97.2840 
 312   0.0000       3.660125        99.5971 
 313   0.0000       3.707689       100.8913 
 314   0.0000       3.878651       105.5435 
 315   0.0000       3.978028       108.2476 
-------
TIMINGS
-------

Total SCF time: 0 days 0 hours 0 min 42 sec 

Total time                  ....      42.300 sec
Sum of individual times     ....      41.496 sec  ( 98.1%)

Fock matrix formation       ....      30.396 sec  ( 71.9%)
  XC integration            ....       2.553 sec  (  8.4% of F)
    Basis function eval.    ....       0.671 sec  ( 26.3% of XC)
    Density eval.           ....       0.745 sec  ( 29.2% of XC)
    XC-Functional eval.     ....       0.074 sec  (  2.9% of XC)
    XC-Potential eval.      ....       0.503 sec  ( 19.7% of XC)
Diagonalization             ....       0.045 sec  (  0.1%)
Density matrix formation    ....       0.091 sec  (  0.2%)
Population analysis         ....       0.000 sec  (  0.0%)
Initial guess               ....       0.067 sec  (  0.2%)
Orbital Transformation      ....       0.000 sec  (  0.0%)
Orbital Orthonormalization  ....       0.035 sec  (  0.1%)
DIIS solution               ....       0.014 sec  (  0.0%)
SOSCF solution              ....       0.272 sec  (  0.6%)
Grid generation             ....      10.611 sec  ( 25.1%)

-------------------------   --------------------
FINAL SINGLE POINT ENERGY     -3102.599525002054
-------------------------   --------------------

                                *** OPTIMIZATION RUN DONE ***


                    ***********************HURRAY************************
                    ***        THE TS OPTIMIZATION HAS CONVERGED      ***
                    *****************************************************



---------------------------------------------------------------
                      PATH SUMMARY FOR NEB-TS             
---------------------------------------------------------------
All forces in Eh/Bohr. Global forces for TS.

Image     E(Eh)   dE(kcal/mol)  max(|Fp|)  RMS(Fp)
  0   -3102.60415     0.00       0.00244   0.00075
  1   -3102.59949     2.92       0.00071   0.00046 <= CI
 TS   -3102.59953     2.90       0.00037   0.00015 <= TS
  2   -3102.63899   -21.86       0.00061   0.00036
  3   -3102.64010   -22.56       0.00375   0.00196
  4   -3102.63923   -22.01       0.03222   0.01198
  5   -3102.63831   -21.43       0.05673   0.02343
  6   -3102.63876   -21.72       0.04907   0.01938
  7   -3102.63571   -19.81       0.08929   0.03137
  8   -3102.63964   -22.27       0.00683   0.00361
  9   -3102.63976   -22.35       0.00045   0.00021
 10   -3102.63957   -22.23       0.00063   0.00024
 11   -3102.63992   -22.45       0.00033   0.00017
 12   -3102.64025   -22.65       0.00005   0.00003
 13   -3102.64018   -22.61       0.00096   0.00053
----------
STATISTICS
----------

For the individual parts of the NEB, NEB-CI or NEB-TS run:

Number of iterations:
     NEB                               ... 264  94.6%
     TS optimization                   ... 15  5.4%
Number of SCF / gradient calculations:
     NEB                               ... 3170  99.5%
     TS optimization                   ... 15  0.5%

----------
 TIMINGS
----------

For the individual parts of the NEB, NEB-CI or NEB-TS run:

Total                                  ...   375174.956 sec
NEB                                    ...   373287.196 sec  99.5%
TS Optimization                        ...     1887.760 sec  0.5%


                            ***************************************
                            *     ORCA property calculations      *
                            ***************************************

                                    ---------------------
                                    Active property flags
                                    ---------------------
   (+) Dipole Moment


------------------------------------------------------------------------------
                       ORCA ELECTRIC PROPERTIES CALCULATION
------------------------------------------------------------------------------

Dipole Moment Calculation                       ... on
Quadrupole Moment Calculation                   ... off
Polarizability Calculation                      ... off
GBWName                                         ... 2-HOOC-4-Br-C6H2-N2-NEB-TS.gbw
Electron density file                           ... 2-HOOC-4-Br-C6H2-N2-NEB-TS.scfp.tmp
The origin for moment calculation is the CENTER OF MASS  = (-1.808354, -0.742827 -0.018893)

-------------
DIPOLE MOMENT
-------------
                                X             Y             Z
Electronic contribution:    -25.70185     -10.94747      -0.34169
Nuclear contribution   :     26.83728      11.62589       0.38556
                        -----------------------------------------
Total Dipole Moment    :      1.13543       0.67842       0.04387
                        -----------------------------------------
Magnitude (a.u.)       :      1.32340
Magnitude (Debye)      :      3.36381



--------------------
Rotational spectrum 
--------------------
 
Rotational constants in cm-1:     0.044955     0.011741     0.009309 
Rotational constants in MHz :  1347.709369   351.972012   279.086137 

 Dipole components along the rotational axes: 
x,y,z [a.u.] :     1.309592     0.190628    -0.003738 
x,y,z [Debye]:     3.328719     0.484539    -0.009500 

 

Timings for individual modules:

Sum of individual times         ...     2274.638 sec (=  37.911 min)
GTO integral calculation        ...       58.150 sec (=   0.969 min)   2.6 %
SCF iterations                  ...     1481.333 sec (=  24.689 min)  65.1 %
SCF Gradient evaluation         ...      733.421 sec (=  12.224 min)  32.2 %
Geometry relaxation             ...        1.734 sec (=   0.029 min)   0.1 %
                             ****ORCA TERMINATED NORMALLY****
TOTAL RUN TIME: 4 days 8 hours 14 minutes 46 seconds 849 msec
