
                                 *****************
                                 * O   R   C   A *
                                 *****************

           --- An Ab Initio, DFT and Semiempirical electronic structure package ---

                  #######################################################
                  #                        -***-                        #
                  #          Department of theory and spectroscopy      #
                  #               Directorship: Frank Neese             #
                  #        Max Planck Institute fuer Kohlenforschung    #
                  #                Kaiser Wilhelm Platz 1               #
                  #                 D-45470 Muelheim/Ruhr               #
                  #                      Germany                        #
                  #                                                     #
                  #                  All rights reserved                #
                  #                        -***-                        #
                  #######################################################


                         Program Version 4.1.0  - RELEASE  -


 With contributions from (in alphabetic order):
   Daniel Aravena         : Magnetic Properties
   Michael Atanasov       : Ab Initio Ligand Field Theory
   Alexander A. Auer      : GIAO ZORA
   Ute Becker             : Parallelization
   Giovanni Bistoni       : ED, Open-shell LED
   Martin Brehm           : Molecular dynamics
   Dmytro Bykov           : SCF Hessian
   Vijay G. Chilkuri      : MRCI spin determinant printing
   Dipayan Datta          : RHF DLPNO-CCSD density
   Achintya Kumar Dutta   : EOM-CC, STEOM-CC
   Dmitry Ganyushin       : Spin-Orbit,Spin-Spin,Magnetic field MRCI
   Miquel Garcia          : C-PCM Hessian
   Yang Guo               : DLPNO-NEVPT2, CIM, IAO-localization
   Andreas Hansen         : Spin unrestricted coupled pair/coupled cluster methods
   Benjamin Helmich-Paris : CASSCF linear response (MC-RPA)
   Lee Huntington         : MR-EOM, pCC
   Robert Izsak           : Overlap fitted RIJCOSX, COSX-SCS-MP3, EOM
   Christian Kollmar      : KDIIS, OOCD, Brueckner-CCSD(T), CCSD density
   Simone Kossmann        : Meta GGA functionals, TD-DFT gradient, OOMP2, MP2 Hessian
   Martin Krupicka        : AUTO-CI
   Lucas Lang             : DCDCAS
   Dagmar Lenk            : GEPOL surface, SMD
   Dimitrios Liakos       : Extrapolation schemes; parallel MDCI
   Dimitrios Manganas     : ROCIS; embedding schemes
   Dimitrios Pantazis     : SARC Basis sets
   Taras Petrenko         : DFT Hessian,TD-DFT gradient, ASA, ECA, R-Raman, ABS, FL, XAS/XES, NRVS
   Peter Pinski           : DLPNO-MP2, DLPNO-MP2 Gradient
   Christoph Reimann      : Effective Core Potentials
   Marius Retegan         : Local ZFS, SOC
   Christoph Riplinger    : Optimizer, TS searches, QM/MM, DLPNO-CCSD(T), (RO)-DLPNO pert. Triples
   Tobias Risthaus        : Range-separated hybrids, TD-DFT gradient, RPA, STAB
   Michael Roemelt        : Restricted open shell CIS
   Masaaki Saitow         : Open-shell DLPNO
   Barbara Sandhoefer     : DKH picture change effects
   Avijit Sen             : IP-ROCIS
   Kantharuban Sivalingam : CASSCF convergence, NEVPT2, FIC-MRCI
   Bernardo de Souza      : ESD, SOC TD-DFT
   Georgi Stoychev        : AutoAux, RI-MP2 NMR
   Willem Van den Heuvel  : Paramagnetic NMR
   Boris Wezisla          : Elementary symmetry handling
   Frank Wennmohs         : Technical directorship


 We gratefully acknowledge several colleagues who have allowed us to
 interface, adapt or use parts of their codes:
   Stefan Grimme, W. Hujo, H. Kruse,             : VdW corrections, initial TS optimization,
                  C. Bannwarth                     DFT functionals, gCP, sTDA/sTD-DF
   Ed Valeev                                     : LibInt (2-el integral package), F12 methods
   Garnet Chan, S. Sharma, J. Yang, R. Olivares  : DMRG
   Ulf Ekstrom                                   : XCFun DFT Library
   Mihaly Kallay                                 : mrcc  (arbitrary order and MRCC methods)
   Andreas Klamt, Michael Diedenhofen            : otool_cosmo (COSMO solvation model)
   Jiri Pittner, Ondrej Demel                    : Mk-CCSD
   Frank Weinhold                                : gennbo (NPA and NBO analysis)
   Christopher J. Cramer and Donald G. Truhlar   : smd solvation model
   Lars Goerigk                                  : TD-DFT with DH, B97 family of functionals
   V. Asgeirsson, H. Jonsson                     : NEB implementation
   FAccTs GmbH                                   : IRC, NEB, NEB-TS, Multilevel


 Your calculation uses the libint2 library for the computation of 2-el integrals
 For citations please refer to: http://libint.valeyev.net

 This ORCA versions uses:
   CBLAS   interface :  Fast vector & matrix operations
   LAPACKE interface :  Fast linear algebra routines
   SCALAPACK package :  Parallel linear algebra routines




***************************************
The coordinates will be read from file: 2-HOOC-C6H3-N2-source.xyz
***************************************


Your calculation utilizes a Nudged-Elastic-Band implementation
 by V.Asgeirsson, C. Riplinger & H. Jonsson
Please cite in your paper:
 V. Asgeirsson et al., in prep. (2019)
   

----- Orbital basis set information -----
Your calculation utilizes the basis: aug-cc-pVDZ 
    H, B-Ne : Obtained from the ccRepo (grant-hill.group.shef.ac.uk/ccrepo) Feb. 2017
              R. A. Kendall, T. H. Dunning, Jr., R. J. Harrison, J. Chem. Phys. 96, 6796 (1992)
         He : Obtained from the ccRepo (grant-hill.group.shef.ac.uk/ccrepo) Feb. 2017
              D. E. Woon, T. H. Dunning, Jr., J. Chem. Phys. 100, 2975 (1994)
  Li-Be, Na : Obtained from the ccRepo (grant-hill.group.shef.ac.uk/ccrepo) Feb. 2017
              B. P. Prascher, D. E. Woon, K. A. Peterson, T. H. Dunning, Jr., A. K. Wilson, Theor. Chem. Acc. 128, 69 (2011)
         Mg : Obtained from the Peterson Research Group Website (tyr0.chem.wsu.edu/~kipeters) Feb. 2017
              B. P. Prascher, D. E. Woon, K. A. Peterson, T. H. Dunning, Jr., A. K. Wilson, Theor. Chem. Acc. 128, 69 (2011)
      Al-Ar : Obtained from the ccRepo (grant-hill.group.shef.ac.uk/ccrepo) Feb. 2017
              D. E. Woon, T. H. Dunning, Jr., J. Chem. Phys. 98, 1358 (1993)
      Sc-Zn : Obtained from the ccRepo (grant-hill.group.shef.ac.uk/ccrepo) Feb. 2017
              N. B. Balabanov, K. A. Peterson, J. Chem. Phys. 123, 064107 (2005)
              N. B. Balabanov, K. A. Peterson, J. Chem. Phys. 125, 074110 (2006)
      Ga-Kr : Obtained from the ccRepo (grant-hill.group.shef.ac.uk/ccrepo) Feb. 2017
              A. K. Wilson, D. E. Woon, K. A. Peterson, T. H. Dunning, Jr., J. Chem. Phys. 110, 7667 (1999)

================================================================================
                                        WARNINGS
                       Please study these warnings very carefully!
================================================================================


WARNING: Geometry Optimization
  ===> : Switching off AutoStart
         For restart on a previous wavefunction, please use MOREAD

INFO   : the flag for use of LIBINT has been found!

================================================================================
                                       INPUT FILE
================================================================================
NAME = 2-HOOC-C6H3-N2-NEB-TS.orc
|  1> ! B3LYP/G aug-cc-pVDZ TightSCF Grid7 NEB-TS
|  2> %scf MaxIter 1000 end
|  3> %geom MaxIter 1000 TolE 1e-8 TolRMSG 5e-7 TolMaxG 1e-6 Convergence tight end
|  4> %neb
|  5>   Nimages 12
|  6>   neb_end_xyzfile "2-HOOC-C6H3-N2-final.xyz"
|  7> end
|  8> * xyzfile 0 1 2-HOOC-C6H3-N2-source.xyz
|  9> %pal nprocs 42 end
| 10> 
| 11>                          ****END OF INPUT****
================================================================================

Running a Single Point calculation on the reactant structure before starting the actual NEB.

---------------------------------
CARTESIAN COORDINATES (ANGSTROEM)
---------------------------------
  C     -1.380309   -1.474083   -1.049887
  C      0.037791   -1.312152   -1.112491
  C      0.386285    0.025614   -0.908886
  C     -0.438243    1.170772   -0.663061
  C     -1.797761    0.896514   -0.623307
  C     -2.263069   -0.422899   -0.816645
  H     -1.800224   -2.474414   -1.191937
  H     -2.489127    1.717140   -0.440896
  N      1.786921    0.171602   -0.973683
  N      2.898673    0.152098   -1.049392
  H     -3.339464   -0.606298   -0.779482
  C      0.002049    2.575013   -0.453584
  O     -0.738595    3.511869   -0.248400
  O      1.355246    2.724983   -0.512762
  H      1.538528    3.666842   -0.364877

----------------------------
CARTESIAN COORDINATES (A.U.)
----------------------------
  NO LB      ZA    FRAG     MASS         X           Y           Z
   0 C     6.0000    0    12.011   -2.608407   -2.785613   -1.983999
   1 C     6.0000    0    12.011    0.071414   -2.479608   -2.102303
   2 C     6.0000    0    12.011    0.729973    0.048403   -1.717545
   3 C     6.0000    0    12.011   -0.828158    2.212438   -1.253004
   4 C     6.0000    0    12.011   -3.397275    1.694165   -1.177880
   5 C     6.0000    0    12.011   -4.276581   -0.799162   -1.543235
   6 H     1.0000    0     1.008   -3.401930   -4.675965   -2.252435
   7 H     1.0000    0     1.008   -4.703768    3.244924   -0.833172
   8 N     7.0000    0    14.007    3.376791    0.324281   -1.839995
   9 N     7.0000    0    14.007    5.477698    0.287423   -1.983064
  10 H     1.0000    0     1.008   -6.310673   -1.145736   -1.473007
  11 C     6.0000    0    12.011    0.003872    4.866070   -0.857150
  12 O     8.0000    0    15.999   -1.395743    6.636471   -0.469409
  13 O     8.0000    0    15.999    2.561044    5.149471   -0.968979
  14 H     1.0000    0     1.008    2.907397    6.929327   -0.689517

--------------------------------
INTERNAL COORDINATES (ANGSTROEM)
--------------------------------
 C      0   0   0     0.000000000000     0.00000000     0.00000000
 C      1   0   0     1.428687957822     0.00000000     0.00000000
 C      2   1   0     1.397326486063   110.46766016     0.00000000
 C      3   2   1     1.432362163970   130.30473986     0.00000000
 C      4   3   2     1.387475172447   114.26311910   359.97481069
 C      1   2   3     1.392356315243   123.44089064     0.00000000
 H      1   2   3     1.094151913364   118.61169237   180.00558409
 H      5   4   3     1.088433653064   118.56564866   180.00676332
 N      3   2   1     1.409713415091   109.89160274   180.02601497
 N      9   3   2     1.114497701402   172.94239033     0.58415930
 H      6   1   2     1.092539376499   120.23853433   179.99073855
 C      4   3   2     1.486483079681   127.51277897   179.97611433
 O     12   4   3     1.211756156012   124.97269670   179.99351343
 O     12   4   3     1.362767611237   113.07628012   359.94534926
 H     14  12   4     0.970855678428   106.71461232   180.02358907

---------------------------
INTERNAL COORDINATES (A.U.)
---------------------------
 C      0   0   0     0.000000000000     0.00000000     0.00000000
 C      1   0   0     2.699828971115     0.00000000     0.00000000
 C      2   1   0     2.640564378333   110.46766016     0.00000000
 C      3   2   1     2.706772214494   130.30473986     0.00000000
 C      4   3   2     2.621948093540   114.26311910   359.97481069
 C      1   2   3     2.631172116645   123.44089064     0.00000000
 H      1   2   3     2.067647465165   118.61169237   180.00558409
 H      5   4   3     2.056841519234   118.56564866   180.00676332
 N      3   2   1     2.663972281837   109.89160274   180.02601497
 N      9   3   2     2.106095432534   172.94239033     0.58415930
 H      6   1   2     2.064600212108   120.23853433   179.99073855
 C      4   3   2     2.809045923304   127.51277897   179.97611433
 O     12   4   3     2.289887275957   124.97269670   179.99351343
 O     12   4   3     2.575257569417   113.07628012   359.94534926
 H     14  12   4     1.834651347790   106.71461232   180.02358907

---------------------
BASIS SET INFORMATION
---------------------
There are 4 groups of distinct atoms

 Group   1 Type C   : 18s5p2d contracted to 4s3p2d pattern {8811/311/11}
 Group   2 Type H   : 5s2p contracted to 3s2p pattern {311/11}
 Group   3 Type N   : 18s5p2d contracted to 4s3p2d pattern {8811/311/11}
 Group   4 Type O   : 18s5p2d contracted to 4s3p2d pattern {8811/311/11}

Atom   0C    basis set group =>   1
Atom   1C    basis set group =>   1
Atom   2C    basis set group =>   1
Atom   3C    basis set group =>   1
Atom   4C    basis set group =>   1
Atom   5C    basis set group =>   1
Atom   6H    basis set group =>   2
Atom   7H    basis set group =>   2
Atom   8N    basis set group =>   3
Atom   9N    basis set group =>   3
Atom  10H    basis set group =>   2
Atom  11C    basis set group =>   1
Atom  12O    basis set group =>   4
Atom  13O    basis set group =>   4
Atom  14H    basis set group =>   2


           ************************************************************
           *        Program running with 42 parallel MPI-processes    *
           *            working without local directories             *
           ************************************************************
------------------------------------------------------------------------------
                           ORCA GTO INTEGRAL CALCULATION
------------------------------------------------------------------------------

                         BASIS SET STATISTICS AND STARTUP INFO

 # of primitive gaussian shells          ...  303
 # of primitive gaussian functions       ...  517
 # of contracted shells                  ...  119
 # of contracted basis functions         ...  289
 Highest angular momentum                ...    2
 Maximum contraction depth               ...    8
 Integral package used                   ... LIBINT
 Integral threshhold            Thresh   ...  2.500e-11
 Primitive cut-off              TCut     ...  2.500e-12


------------------------------ INTEGRAL EVALUATION ----------------------------


 * One electron integrals 
 Pre-screening matrix                    ... done
 Shell pair data                         ... done (   0.004 sec)



           ************************************************************
           *        Program running with 42 parallel MPI-processes    *
           *            working without local directories             *
           ************************************************************
-------------------------------------------------------------------------------
                                 ORCA SCF
-------------------------------------------------------------------------------

------------
SCF SETTINGS
------------
Hamiltonian:
 Density Functional     Method          .... DFT(GTOs)
 Exchange Functional    Exchange        .... B88
   X-Alpha parameter    XAlpha          ....  0.666667
   Becke's b parameter  XBeta           ....  0.004200
 Correlation Functional Correlation     .... LYP
 LDA part of GGA corr.  LDAOpt          .... VWN-3
 Gradients option       PostSCFGGA      .... off
 Hybrid DFT is turned on
   Fraction HF Exchange ScalHFX         ....  0.200000
   Scaling of DF-GGA-X  ScalDFX         ....  0.720000
   Scaling of DF-GGA-C  ScalDFC         ....  0.810000
   Scaling of DF-LDA-C  ScalLDAC        ....  1.000000
   Perturbative correction              ....  0.000000
   Density functional embedding theory  .... OFF
   NL short-range parameter             ....  4.800000


General Settings:
 Integral files         IntName         .... 2-HOOC-C6H3-N2-NEB-TS
 Hartree-Fock type      HFTyp           .... RHF
 Total Charge           Charge          ....    0
 Multiplicity           Mult            ....    1
 Number of Electrons    NEL             ....   76
 Basis Dimension        Dim             ....  289
 Nuclear Repulsion      ENuc            ....    541.6774413577 Eh

Convergence Acceleration:
 DIIS                   CNVDIIS         .... on
   Start iteration      DIISMaxIt       ....    12
   Startup error        DIISStart       ....  0.200000
   # of expansion vecs  DIISMaxEq       ....     5
   Bias factor          DIISBfac        ....   1.050
   Max. coefficient     DIISMaxC        ....  10.000
 Newton-Raphson         CNVNR           .... off
 SOSCF                  CNVSOSCF        .... on
   Start iteration      SOSCFMaxIt      ....   150
   Startup grad/error   SOSCFStart      ....  0.003300
 Level Shifting         CNVShift        .... on
   Level shift para.    LevelShift      ....    0.2500
   Turn off err/grad.   ShiftErr        ....    0.0010
 Zerner damping         CNVZerner       .... off
 Static damping         CNVDamp         .... on
   Fraction old density DampFac         ....    0.7000
   Max. Damping (<1)    DampMax         ....    0.9800
   Min. Damping (>=0)   DampMin         ....    0.0000
   Turn off err/grad.   DampErr         ....    0.1000
 Fernandez-Rico         CNVRico         .... off

SCF Procedure:
 Maximum # iterations   MaxIter         ....  1000
 SCF integral mode      SCFMode         .... Direct
   Integral package                     .... LIBINT
 Reset frequency        DirectResetFreq ....    20
 Integral Threshold     Thresh          ....  2.500e-11 Eh
 Primitive CutOff       TCut            ....  2.500e-12 Eh

Convergence Tolerance:
 Convergence Check Mode ConvCheckMode   .... Total+1el-Energy
 Convergence forced     ConvForced      .... 0
 Energy Change          TolE            ....  1.000e-08 Eh
 1-El. energy change                    ....  1.000e-05 Eh
 Orbital Gradient       TolG            ....  1.000e-05
 Orbital Rotation angle TolX            ....  1.000e-05
 DIIS Error             TolErr          ....  5.000e-07


Diagonalization of the overlap matrix:
Smallest eigenvalue                        ... 3.293e-06
Time for diagonalization                   ...    0.022 sec
Threshold for overlap eigenvalues          ... 1.000e-08
Number of eigenvalues below threshold      ... 0
Time for construction of square roots      ...    0.022 sec
Total time needed                          ...    0.044 sec

-------------------
DFT GRID GENERATION
-------------------

General Integration Accuracy     IntAcc      ...  5.670
Radial Grid Type                 RadialGrid  ... Gauss-Chebyshev
Angular Grid (max. acc.)         AngularGrid ... Lebedev-770
Angular grid pruning method      GridPruning ... 3 (G Style)
Weight generation scheme         WeightScheme... Becke
Basis function cutoff            BFCut       ...    1.0000e-11
Integration weight cutoff        WCut        ...    1.0000e-14
Grids for H and He will be reduced by one unit

# of grid points (after initial pruning)     ... 346670 (   0.0 sec)
# of grid points (after weights+screening)   ... 317617 (   0.3 sec)
nearest neighbour list constructed           ...    0.0 sec
Grid point re-assignment to atoms done       ...    0.1 sec
Grid point division into batches done        ...    7.2 sec
Reduced shell lists constructed in    7.5 sec

Total number of grid points                  ...   317617
Total number of batches                      ...     4969
Average number of points per batch           ...       63
Average number of grid points per atom       ...    21174
Average number of shells per batch           ...    91.64 (77.01%)
Average number of basis functions per batch  ...   221.82 (76.76%)
Average number of large shells per batch     ...    76.12 (83.06%)
Average number of large basis fcns per batch ...   184.53 (83.19%)
Maximum spatial batch extension              ...   3.52,  5.04, 13.24 au
Average spatial batch extension              ...   0.03,  0.03,  0.03 au

Time for grid setup =    9.414 sec

------------------------------
INITIAL GUESS: MODEL POTENTIAL
------------------------------
Loading Hartree-Fock densities                     ... done
Calculating cut-offs                               ... done
Setting up the integral package                    ... done
Initializing the effective Hamiltonian             ... done
Starting the Coulomb interaction                   ... done (   0.0 sec)
Reading the grid                                   ... done
Mapping shells                                     ... done
Starting the XC term evaluation                    ... done (   0.4 sec)
  promolecular density results
     # of electrons  =     75.998043946
     EX              =    -66.624097210
     EC              =     -2.636680618
     EX+EC           =    -69.260777828
Transforming the Hamiltonian                       ... done (   0.0 sec)
Diagonalizing the Hamiltonian                      ... done (   0.0 sec)
Back transforming the eigenvectors                 ... done (   0.0 sec)
Now organizing SCF variables                       ... done
                      ------------------
                      INITIAL GUESS DONE (  10.0 sec)
                      ------------------
--------------
SCF ITERATIONS
--------------
ITER       Energy         Delta-E        Max-DP      RMS-DP      [F,P]     Damp
               ***  Starting incremental Fock matrix formation  ***
  0   -528.7266953391   0.000000000000 1.23370342  0.01889904  0.2648638 0.7000
  1   -528.8878420889  -0.161146749784 0.91023329  0.01362982  0.0971412 0.7000
                               ***Turning on DIIS***
  2   -528.9374976385  -0.049655549670 1.91758608  0.02850495  0.0381359 0.0000
  3   -529.0208754149  -0.083377776355 0.20938148  0.00417461  0.0528002 0.0000
  4   -529.0442597272  -0.023384312327 0.11209587  0.00204721  0.0202409 0.0000
  5   -529.0465500706  -0.002290343342 0.03201849  0.00053293  0.0081365 0.0000
  6   -529.0467946860  -0.000244615428 0.01355794  0.00027267  0.0034739 0.0000
                      *** Initiating the SOSCF procedure ***
                           *** Shutting down DIIS ***
                      *** Re-Reading the Fockian *** 
                      *** Removing any level shift *** 
ITER      Energy       Delta-E        Grad      Rot      Max-DP    RMS-DP
  7   -529.04686489  -0.0000702044  0.001421  0.001421  0.011917  0.000179
               *** Restarting incremental Fock matrix formation ***
  8   -529.04689472  -0.0000298267  0.001101  0.009954  0.020862  0.000288
  9   -529.04692573  -0.0000310143  0.000510  0.009131  0.016764  0.000254
 10   -529.04691436   0.0000113698  0.001263  0.004013  0.011334  0.000172
 11   -529.04693191  -0.0000175482  0.000140  0.001680  0.016358  0.000163
 12   -529.04692957   0.0000023387  0.000294  0.001238  0.004347  0.000086
 13   -529.04693269  -0.0000031197  0.000030  0.000092  0.013910  0.000171
 14   -529.04693261   0.0000000805  0.000047  0.000066  0.002345  0.000048
 15   -529.04693273  -0.0000001225  0.000008  0.000043  0.006154  0.000129
 16   -529.04693273   0.0000000021  0.000014  0.000026  0.006598  0.000112
 17   -529.04693274  -0.0000000051  0.000004  0.000013  0.011120  0.000220
 18   -529.04693273   0.0000000021  0.000005  0.000006  0.015438  0.000176
 19   -529.04693273  -0.0000000005  0.000003  0.000010  0.014864  0.000196
 20   -529.04693274  -0.0000000024  0.000005  0.000004  0.019018  0.000174
 21   -529.04693274  -0.0000000010  0.000004  0.000012  0.028650  0.000248
 22   -529.04693274   0.0000000014  0.000004  0.000004  0.004726  0.000084
                  ***Gradient check signals convergence***
              ***Rediagonalizing the Fockian in SOSCF/NRSCF***

               *****************************************************
               *                     SUCCESS                       *
               *           SCF CONVERGED AFTER  23 CYCLES          *
               *****************************************************


----------------
TOTAL SCF ENERGY
----------------

Total Energy       :         -529.04693274 Eh          -14396.09892 eV

Components:
Nuclear Repulsion  :          541.67744136 Eh           14739.79254 eV
Electronic Energy  :        -1070.72437409 Eh          -29135.89146 eV
One Electron Energy:        -1791.00788316 Eh          -48735.80218 eV
Two Electron Energy:          720.28350907 Eh           19599.91072 eV

Virial components:
Potential Energy   :        -1054.87761655 Eh          -28704.67926 eV
Kinetic Energy     :          525.83068381 Eh           14308.58034 eV
Virial Ratio       :            2.00611651


DFT components:
N(Alpha)           :       38.000000072991 electrons
N(Beta)            :       38.000000072991 electrons
N(Total)           :       76.000000145983 electrons
E(X)               :      -53.472690385267 Eh       
E(C)               :       -3.384417435701 Eh       
E(XC)              :      -56.857107820968 Eh       
DFET-embed. en.    :        0.000000000000 Eh       

---------------
SCF CONVERGENCE
---------------

  Last Energy change         ...   -3.0491e-10  Tolerance :   1.0000e-08
  Last MAX-Density change    ...    8.9353e-03  Tolerance :   1.0000e-07
  Last RMS-Density change    ...    1.4213e-04  Tolerance :   5.0000e-09
  Last Orbital Gradient      ...    1.8675e-06  Tolerance :   1.0000e-05
  Last Orbital Rotation      ...    5.3733e-06  Tolerance :   1.0000e-05

             **** THE GBW FILE WAS UPDATED (2-HOOC-C6H3-N2-NEB-TS.gbw) ****
             **** DENSITY FILE WAS UPDATED (2-HOOC-C6H3-N2-NEB-TS.scfp.tmp) ****
             **** ENERGY FILE WAS UPDATED (2-HOOC-C6H3-N2-NEB-TS.en.tmp) ****
----------------
ORBITAL ENERGIES
----------------

  NO   OCC          E(Eh)            E(eV) 
   0   2.0000     -19.225823      -523.1612 
   1   2.0000     -19.164984      -521.5057 
   2   2.0000     -14.541768      -395.7016 
   3   2.0000     -14.497954      -394.5094 
   4   2.0000     -10.351858      -281.6884 
   5   2.0000     -10.281814      -279.7824 
   6   2.0000     -10.245517      -278.7947 
   7   2.0000     -10.223242      -278.1886 
   8   2.0000     -10.219989      -278.1000 
   9   2.0000     -10.207520      -277.7607 
  10   2.0000     -10.173449      -276.8336 
  11   2.0000      -1.194366       -32.5004 
  12   2.0000      -1.140153       -31.0251 
  13   2.0000      -1.049894       -28.5691 
  14   2.0000      -0.916632       -24.9428 
  15   2.0000      -0.841471       -22.8976 
  16   2.0000      -0.788370       -21.4526 
  17   2.0000      -0.713059       -19.4033 
  18   2.0000      -0.681524       -18.5452 
  19   2.0000      -0.614328       -16.7167 
  20   2.0000      -0.593874       -16.1601 
  21   2.0000      -0.549477       -14.9520 
  22   2.0000      -0.547193       -14.8899 
  23   2.0000      -0.531685       -14.4679 
  24   2.0000      -0.515411       -14.0250 
  25   2.0000      -0.506490       -13.7823 
  26   2.0000      -0.481607       -13.1052 
  27   2.0000      -0.481075       -13.0907 
  28   2.0000      -0.452642       -12.3170 
  29   2.0000      -0.433640       -11.7999 
  30   2.0000      -0.410364       -11.1666 
  31   2.0000      -0.392044       -10.6680 
  32   2.0000      -0.371556       -10.1106 
  33   2.0000      -0.354902        -9.6574 
  34   2.0000      -0.315033        -8.5725 
  35   2.0000      -0.294445        -8.0122 
  36   2.0000      -0.273627        -7.4458 
  37   2.0000      -0.206297        -5.6136 
  38   0.0000      -0.120846        -3.2884 
  39   0.0000      -0.096625        -2.6293 
  40   0.0000      -0.063822        -1.7367 
  41   0.0000      -0.022918        -0.6236 
  42   0.0000      -0.007478        -0.2035 
  43   0.0000      -0.004370        -0.1189 
  44   0.0000       0.016769         0.4563 
  45   0.0000       0.019836         0.5398 
  46   0.0000       0.026440         0.7195 
  47   0.0000       0.032731         0.8907 
  48   0.0000       0.033297         0.9061 
  49   0.0000       0.044023         1.1979 
  50   0.0000       0.063661         1.7323 
  51   0.0000       0.065749         1.7891 
  52   0.0000       0.065906         1.7934 
  53   0.0000       0.069732         1.8975 
  54   0.0000       0.072763         1.9800 
  55   0.0000       0.086713         2.3596 
  56   0.0000       0.087598         2.3837 
  57   0.0000       0.090754         2.4696 
  58   0.0000       0.103564         2.8181 
  59   0.0000       0.107639         2.9290 
  60   0.0000       0.110194         2.9985 
  61   0.0000       0.113391         3.0855 
  62   0.0000       0.118534         3.2255 
  63   0.0000       0.120507         3.2792 
  64   0.0000       0.124571         3.3898 
  65   0.0000       0.127637         3.4732 
  66   0.0000       0.134185         3.6513 
  67   0.0000       0.143405         3.9022 
  68   0.0000       0.147540         4.0148 
  69   0.0000       0.166818         4.5393 
  70   0.0000       0.168896         4.5959 
  71   0.0000       0.174181         4.7397 
  72   0.0000       0.180270         4.9054 
  73   0.0000       0.185118         5.0373 
  74   0.0000       0.187434         5.1004 
  75   0.0000       0.189761         5.1637 
  76   0.0000       0.195102         5.3090 
  77   0.0000       0.196388         5.3440 
  78   0.0000       0.199381         5.4254 
  79   0.0000       0.206952         5.6315 
  80   0.0000       0.212000         5.7688 
  81   0.0000       0.219900         5.9838 
  82   0.0000       0.228219         6.2102 
  83   0.0000       0.232768         6.3339 
  84   0.0000       0.236921         6.4470 
  85   0.0000       0.242518         6.5992 
  86   0.0000       0.246069         6.6959 
  87   0.0000       0.262206         7.1350 
  88   0.0000       0.264173         7.1885 
  89   0.0000       0.271090         7.3767 
  90   0.0000       0.277551         7.5525 
  91   0.0000       0.282366         7.6836 
  92   0.0000       0.282574         7.6892 
  93   0.0000       0.284842         7.7509 
  94   0.0000       0.291475         7.9314 
  95   0.0000       0.294624         8.0171 
  96   0.0000       0.307009         8.3541 
  97   0.0000       0.308212         8.3869 
  98   0.0000       0.320341         8.7169 
  99   0.0000       0.329425         8.9641 
 100   0.0000       0.336637         9.1604 
 101   0.0000       0.350312         9.5325 
 102   0.0000       0.352707         9.5976 
 103   0.0000       0.365477         9.9451 
 104   0.0000       0.375611        10.2209 
 105   0.0000       0.384853        10.4724 
 106   0.0000       0.385854        10.4996 
 107   0.0000       0.400901        10.9091 
 108   0.0000       0.402763        10.9597 
 109   0.0000       0.427912        11.6441 
 110   0.0000       0.433870        11.8062 
 111   0.0000       0.452159        12.3039 
 112   0.0000       0.458700        12.4819 
 113   0.0000       0.467051        12.7091 
 114   0.0000       0.476674        12.9709 
 115   0.0000       0.487535        13.2665 
 116   0.0000       0.490071        13.3355 
 117   0.0000       0.496807        13.5188 
 118   0.0000       0.507256        13.8032 
 119   0.0000       0.511667        13.9232 
 120   0.0000       0.526331        14.3222 
 121   0.0000       0.534827        14.5534 
 122   0.0000       0.542237        14.7550 
 123   0.0000       0.545162        14.8346 
 124   0.0000       0.552742        15.0409 
 125   0.0000       0.558428        15.1956 
 126   0.0000       0.561243        15.2722 
 127   0.0000       0.568028        15.4568 
 128   0.0000       0.577690        15.7197 
 129   0.0000       0.588694        16.0192 
 130   0.0000       0.593900        16.1608 
 131   0.0000       0.602473        16.3941 
 132   0.0000       0.613148        16.6846 
 133   0.0000       0.625246        17.0138 
 134   0.0000       0.628372        17.0989 
 135   0.0000       0.631020        17.1709 
 136   0.0000       0.631231        17.1767 
 137   0.0000       0.649192        17.6654 
 138   0.0000       0.663246        18.0479 
 139   0.0000       0.670905        18.2562 
 140   0.0000       0.685310        18.6482 
 141   0.0000       0.693316        18.8661 
 142   0.0000       0.697515        18.9804 
 143   0.0000       0.706056        19.2128 
 144   0.0000       0.708634        19.2829 
 145   0.0000       0.720373        19.6023 
 146   0.0000       0.723692        19.6927 
 147   0.0000       0.726760        19.7761 
 148   0.0000       0.732223        19.9248 
 149   0.0000       0.734261        19.9803 
 150   0.0000       0.757002        20.5991 
 151   0.0000       0.764592        20.8056 
 152   0.0000       0.775089        21.0913 
 153   0.0000       0.787178        21.4202 
 154   0.0000       0.788458        21.4550 
 155   0.0000       0.794987        21.6327 
 156   0.0000       0.804502        21.8916 
 157   0.0000       0.813008        22.1231 
 158   0.0000       0.833402        22.6780 
 159   0.0000       0.854670        23.2567 
 160   0.0000       0.856935        23.3184 
 161   0.0000       0.859873        23.3983 
 162   0.0000       0.886717        24.1288 
 163   0.0000       0.887773        24.1575 
 164   0.0000       0.895045        24.3554 
 165   0.0000       0.895293        24.3622 
 166   0.0000       0.905527        24.6407 
 167   0.0000       0.942057        25.6347 
 168   0.0000       0.955513        26.0008 
 169   0.0000       0.965458        26.2714 
 170   0.0000       0.966590        26.3023 
 171   0.0000       0.993466        27.0336 
 172   0.0000       1.011486        27.5239 
 173   0.0000       1.012504        27.5516 
 174   0.0000       1.032279        28.0897 
 175   0.0000       1.053010        28.6539 
 176   0.0000       1.095462        29.8090 
 177   0.0000       1.096063        29.8254 
 178   0.0000       1.125056        30.6143 
 179   0.0000       1.125592        30.6289 
 180   0.0000       1.161127        31.5959 
 181   0.0000       1.170723        31.8570 
 182   0.0000       1.189861        32.3778 
 183   0.0000       1.193957        32.4892 
 184   0.0000       1.197981        32.5987 
 185   0.0000       1.223793        33.3011 
 186   0.0000       1.228753        33.4361 
 187   0.0000       1.238372        33.6978 
 188   0.0000       1.264336        34.4043 
 189   0.0000       1.264988        34.4221 
 190   0.0000       1.297096        35.2958 
 191   0.0000       1.312967        35.7277 
 192   0.0000       1.327098        36.1122 
 193   0.0000       1.335516        36.3412 
 194   0.0000       1.346670        36.6447 
 195   0.0000       1.375330        37.4246 
 196   0.0000       1.390665        37.8419 
 197   0.0000       1.395959        37.9860 
 198   0.0000       1.407360        38.2962 
 199   0.0000       1.420864        38.6637 
 200   0.0000       1.428253        38.8647 
 201   0.0000       1.436855        39.0988 
 202   0.0000       1.477954        40.2172 
 203   0.0000       1.485669        40.4271 
 204   0.0000       1.505637        40.9705 
 205   0.0000       1.508450        41.0470 
 206   0.0000       1.520256        41.3683 
 207   0.0000       1.529335        41.6153 
 208   0.0000       1.529837        41.6290 
 209   0.0000       1.552671        42.2503 
 210   0.0000       1.555447        42.3259 
 211   0.0000       1.585094        43.1326 
 212   0.0000       1.607170        43.7333 
 213   0.0000       1.640138        44.6304 
 214   0.0000       1.643123        44.7117 
 215   0.0000       1.659395        45.1544 
 216   0.0000       1.665382        45.3173 
 217   0.0000       1.671081        45.4724 
 218   0.0000       1.677213        45.6393 
 219   0.0000       1.705257        46.4024 
 220   0.0000       1.714189        46.6454 
 221   0.0000       1.720029        46.8044 
 222   0.0000       1.753652        47.7193 
 223   0.0000       1.786987        48.6264 
 224   0.0000       1.805094        49.1191 
 225   0.0000       1.815942        49.4143 
 226   0.0000       1.848748        50.3070 
 227   0.0000       1.866502        50.7901 
 228   0.0000       1.884051        51.2676 
 229   0.0000       1.895825        51.5880 
 230   0.0000       1.913050        52.0567 
 231   0.0000       1.913573        52.0710 
 232   0.0000       1.947198        52.9859 
 233   0.0000       1.947978        53.0072 
 234   0.0000       1.971010        53.6339 
 235   0.0000       1.978865        53.8476 
 236   0.0000       2.012009        54.7495 
 237   0.0000       2.036135        55.4060 
 238   0.0000       2.048158        55.7332 
 239   0.0000       2.055347        55.9288 
 240   0.0000       2.063909        56.1618 
 241   0.0000       2.089154        56.8488 
 242   0.0000       2.091593        56.9151 
 243   0.0000       2.096576        57.0507 
 244   0.0000       2.129497        57.9466 
 245   0.0000       2.151214        58.5375 
 246   0.0000       2.170160        59.0531 
 247   0.0000       2.202750        59.9399 
 248   0.0000       2.223407        60.5020 
 249   0.0000       2.242784        61.0293 
 250   0.0000       2.263838        61.6022 
 251   0.0000       2.277300        61.9685 
 252   0.0000       2.297598        62.5208 
 253   0.0000       2.374166        64.6043 
 254   0.0000       2.394752        65.1645 
 255   0.0000       2.395750        65.1917 
 256   0.0000       2.433551        66.2203 
 257   0.0000       2.471197        67.2447 
 258   0.0000       2.505960        68.1906 
 259   0.0000       2.520351        68.5822 
 260   0.0000       2.578814        70.1731 
 261   0.0000       2.647229        72.0348 
 262   0.0000       2.691493        73.2392 
 263   0.0000       2.710599        73.7591 
 264   0.0000       2.767232        75.3002 
 265   0.0000       2.832494        77.0761 
 266   0.0000       2.848541        77.5127 
 267   0.0000       2.864611        77.9500 
 268   0.0000       2.871806        78.1458 
 269   0.0000       2.903113        78.9977 
 270   0.0000       2.963027        80.6281 
 271   0.0000       3.014476        82.0281 
 272   0.0000       3.131186        85.2039 
 273   0.0000       3.139787        85.4380 
 274   0.0000       3.207229        87.2731 
 275   0.0000       3.267612        88.9162 
 276   0.0000       3.288545        89.4859 
 277   0.0000       3.314765        90.1993 
 278   0.0000       3.358353        91.3854 
 279   0.0000       3.385269        92.1179 
 280   0.0000       3.386530        92.1522 
 281   0.0000       3.409353        92.7732 
 282   0.0000       3.466847        94.3377 
 283   0.0000       3.522044        95.8397 
 284   0.0000       3.556398        96.7745 
 285   0.0000       3.675920       100.0269 
 286   0.0000       3.733432       101.5919 
 287   0.0000       3.854985       104.8995 
 288   0.0000       3.987609       108.5084 

                    ********************************
                    * MULLIKEN POPULATION ANALYSIS *
                    ********************************

-----------------------
MULLIKEN ATOMIC CHARGES
-----------------------
   0 C :    0.572196
   1 C :   -1.478429
   2 C :    1.188639
   3 C :    1.928983
   4 C :    0.457222
   5 C :    0.573825
   6 H :   -0.699803
   7 H :   -0.994758
   8 N :    0.481347
   9 N :   -0.903084
  10 H :   -0.759222
  11 C :    0.486047
  12 O :   -0.531559
  13 O :   -0.589857
  14 H :    0.268453
Sum of atomic charges:    0.0000000

--------------------------------
MULLIKEN REDUCED ORBITAL CHARGES
--------------------------------
  0 C s       :     3.314362  s :     3.314362
      pz      :     0.917687  p :     2.136628
      px      :     0.463915
      py      :     0.755026
      dz2     :     0.010999  d :    -0.023186
      dxz     :     0.004711
      dyz     :     0.006079
      dx2y2   :    -0.002113
      dxy     :    -0.042862
  1 C s       :     4.152439  s :     4.152439
      pz      :     0.616953  p :     3.281719
      px      :     1.284068
      py      :     1.380697
      dz2     :     0.011279  d :     0.044272
      dxz     :     0.008380
      dyz     :     0.013080
      dx2y2   :     0.055398
      dxy     :    -0.043865
  2 C s       :     3.463312  s :     3.463312
      pz      :     1.056584  p :     1.427801
      px      :     0.134345
      py      :     0.236871
      dz2     :     0.014922  d :    -0.079752
      dxz     :    -0.007176
      dyz     :     0.031005
      dx2y2   :    -0.083759
      dxy     :    -0.034744
  3 C s       :     3.251819  s :     3.251819
      pz      :     0.929810  p :     0.655874
      px      :    -0.384710
      py      :     0.110773
      dz2     :     0.026286  d :     0.163324
      dxz     :     0.050517
      dyz     :     0.021600
      dx2y2   :    -0.090987
      dxy     :     0.155907
  4 C s       :     3.526911  s :     3.526911
      pz      :     0.900346  p :     2.311485
      px      :     1.359191
      py      :     0.051948
      dz2     :     0.011679  d :    -0.295617
      dxz     :     0.010620
      dyz     :     0.006528
      dx2y2   :    -0.203418
      dxy     :    -0.121026
  5 C s       :     3.296248  s :     3.296248
      pz      :     0.885412  p :     2.333210
      px      :     0.596206
      py      :     0.851592
      dz2     :     0.013711  d :    -0.203282
      dxz     :     0.000624
      dyz     :     0.010971
      dx2y2   :    -0.093785
      dxy     :    -0.134803
  6 H s       :     1.720749  s :     1.720749
      pz      :     0.014336  p :    -0.020946
      px      :    -0.034888
      py      :    -0.000394
  7 H s       :     1.969473  s :     1.969473
      pz      :     0.012001  p :     0.025285
      px      :     0.030780
      py      :    -0.017496
  8 N s       :     3.524531  s :     3.524531
      pz      :     1.180884  p :     2.810972
      px      :     0.491498
      py      :     1.138590
      dz2     :     0.009002  d :     0.183150
      dxz     :     0.084807
      dyz     :     0.001901
      dx2y2   :     0.026440
      dxy     :     0.061000
  9 N s       :     4.632350  s :     4.632350
      pz      :     1.017535  p :     3.204867
      px      :     1.284151
      py      :     0.903181
      dz2     :     0.004269  d :     0.065867
      dxz     :     0.028056
      dyz     :     0.000184
      dx2y2   :     0.007701
      dxy     :     0.025657
 10 H s       :     1.775560  s :     1.775560
      pz      :     0.011638  p :    -0.016338
      px      :     0.000053
      py      :    -0.028029
 11 C s       :     3.610832  s :     3.610832
      pz      :     0.713286  p :     1.729733
      px      :     0.216985
      py      :     0.799461
      dz2     :     0.005020  d :     0.173389
      dxz     :     0.039460
      dyz     :     0.040865
      dx2y2   :     0.077944
      dxy     :     0.010101
 12 O s       :     4.089206  s :     4.089206
      pz      :     1.411704  p :     4.408573
      px      :     1.595936
      py      :     1.400933
      dz2     :     0.002890  d :     0.033780
      dxz     :     0.005952
      dyz     :     0.008890
      dx2y2   :     0.010907
      dxy     :     0.005141
 13 O s       :     4.081330  s :     4.081330
      pz      :     1.784828  p :     4.504803
      px      :     1.340036
      py      :     1.379939
      dz2     :    -0.000375  d :     0.003724
      dxz     :     0.010071
      dyz     :    -0.000357
      dx2y2   :    -0.008127
      dxy     :     0.002512
 14 H s       :     0.657605  s :     0.657605
      pz      :     0.029788  p :     0.073942
      px      :     0.004369
      py      :     0.039784


                     *******************************
                     * LOEWDIN POPULATION ANALYSIS *
                     *******************************

----------------------
LOEWDIN ATOMIC CHARGES
----------------------
   0 C :   -0.063340
   1 C :    0.052495
   2 C :   -0.259924
   3 C :   -0.115309
   4 C :    0.062336
   5 C :    0.024464
   6 H :   -0.012274
   7 H :    0.014350
   8 N :    0.002413
   9 N :    0.334893
  10 H :    0.008688
  11 C :   -0.385646
  12 O :    0.116249
  13 O :    0.244879
  14 H :   -0.024276

-------------------------------
LOEWDIN REDUCED ORBITAL CHARGES
-------------------------------
  0 C s       :     2.643094  s :     2.643094
      pz      :     0.732740  p :     2.685325
      px      :     1.015227
      py      :     0.937358
      dz2     :     0.066242  d :     0.734921
      dxz     :     0.091080
      dyz     :     0.043667
      dx2y2   :     0.253896
      dxy     :     0.280037
  1 C s       :     2.782016  s :     2.782016
      pz      :     0.558205  p :     2.611247
      px      :     1.019641
      py      :     1.033400
      dz2     :     0.062905  d :     0.554242
      dxz     :     0.076698
      dyz     :     0.070113
      dx2y2   :     0.174160
      dxy     :     0.170366
  2 C s       :     2.593703  s :     2.593703
      pz      :     0.838748  p :     2.618961
      px      :     0.756001
      py      :     1.024213
      dz2     :     0.102146  d :     1.047259
      dxz     :     0.104037
      dyz     :     0.150259
      dx2y2   :     0.393474
      dxy     :     0.297342
  3 C s       :     2.580828  s :     2.580828
      pz      :     0.782438  p :     2.647864
      px      :     0.956939
      py      :     0.908487
      dz2     :     0.090073  d :     0.886617
      dxz     :     0.142114
      dyz     :     0.112880
      dx2y2   :     0.270226
      dxy     :     0.271325
  4 C s       :     2.610958  s :     2.610958
      pz      :     0.733327  p :     2.630372
      px      :     0.949352
      py      :     0.947693
      dz2     :     0.066778  d :     0.696334
      dxz     :     0.092783
      dyz     :     0.079396
      dx2y2   :     0.195180
      dxy     :     0.262196
  5 C s       :     2.625894  s :     2.625894
      pz      :     0.728939  p :     2.649252
      px      :     0.946635
      py      :     0.973678
      dz2     :     0.070967  d :     0.700390
      dxz     :     0.033885
      dyz     :     0.128581
      dx2y2   :     0.274323
      dxy     :     0.192633
  6 H s       :     0.747476  s :     0.747476
      pz      :     0.068730  p :     0.264799
      px      :     0.076809
      py      :     0.119260
  7 H s       :     0.719384  s :     0.719384
      pz      :     0.067881  p :     0.266266
      px      :     0.088100
      py      :     0.110284
  8 N s       :     2.931011  s :     2.931011
      pz      :     1.005701  p :     3.298310
      px      :     1.287254
      py      :     1.005355
      dz2     :     0.078301  d :     0.768267
      dxz     :     0.254584
      dyz     :     0.004957
      dx2y2   :     0.223994
      dxy     :     0.206431
  9 N s       :     3.235245  s :     3.235245
      pz      :     0.945619  p :     3.145909
      px      :     1.336922
      py      :     0.863368
      dz2     :     0.033851  d :     0.283953
      dxz     :     0.077776
      dyz     :     0.000668
      dx2y2   :     0.103657
      dxy     :     0.068001
 10 H s       :     0.737758  s :     0.737758
      pz      :     0.067330  p :     0.253554
      px      :     0.128212
      py      :     0.058012
 11 C s       :     2.565663  s :     2.565663
      pz      :     0.656705  p :     2.435298
      px      :     0.833792
      py      :     0.944801
      dz2     :     0.125862  d :     1.384684
      dxz     :     0.222768
      dyz     :     0.176926
      dx2y2   :     0.486309
      dxy     :     0.372820
 12 O s       :     3.367853  s :     3.367853
      pz      :     1.316092  p :     4.341649
      px      :     1.536808
      py      :     1.488749
      dz2     :     0.020343  d :     0.174249
      dxz     :     0.016186
      dyz     :     0.024445
      dx2y2   :     0.055026
      dxy     :     0.058250
 13 O s       :     3.229400  s :     3.229400
      pz      :     1.578303  p :     4.343919
      px      :     1.385852
      py      :     1.379764
      dz2     :     0.023940  d :     0.181802
      dxz     :     0.033201
      dyz     :     0.002904
      dx2y2   :     0.068819
      dxy     :     0.052937
 14 H s       :     0.607662  s :     0.607662
      pz      :     0.112164  p :     0.416614
      px      :     0.099155
      py      :     0.205295


                      *****************************
                      * MAYER POPULATION ANALYSIS *
                      *****************************

  NA   - Mulliken gross atomic population
  ZA   - Total nuclear charge
  QA   - Mulliken gross atomic charge
  VA   - Mayer's total valence
  BVA  - Mayer's bonded valence
  FA   - Mayer's free valence

  ATOM       NA         ZA         QA         VA         BVA        FA
  0 C      5.4278     6.0000     0.5722     3.1782     3.1782    -0.0000
  1 C      7.4784     6.0000    -1.4784     1.6777     1.6777     0.0000
  2 C      4.8114     6.0000     1.1886     0.2391     0.2391     0.0000
  3 C      4.0710     6.0000     1.9290    -1.9106    -1.9106     0.0000
  4 C      5.5428     6.0000     0.4572    -1.1840    -1.1840    -0.0000
  5 C      5.4262     6.0000     0.5738     2.4248     2.4248     0.0000
  6 H      1.6998     1.0000    -0.6998     0.3059     0.3059     0.0000
  7 H      1.9948     1.0000    -0.9948     0.0107     0.0107     0.0000
  8 N      6.5187     7.0000     0.4813     2.0608     2.0608    -0.0000
  9 N      7.9031     7.0000    -0.9031     0.9733     0.9733     0.0000
 10 H      1.7592     1.0000    -0.7592     0.1997     0.1997    -0.0000
 11 C      5.5140     6.0000     0.4860     1.6362     1.6362     0.0000
 12 O      8.5316     8.0000    -0.5316     1.6386     1.6386     0.0000
 13 O      8.5899     8.0000    -0.5899     1.6596     1.6596     0.0000
 14 H      0.7315     1.0000     0.2685     0.9149     0.9149     0.0000

  Mayer bond orders larger than 0.1
B(  0-C ,  1-C ) :   1.2450 B(  0-C ,  2-C ) :   0.2159 B(  0-C ,  4-C ) :  -0.2953 
B(  0-C ,  5-C ) :   1.3343 B(  0-C ,  6-H ) :   0.2536 B(  0-C , 10-H ) :   0.2617 
B(  1-C ,  2-C ) :   0.6018 B(  1-C ,  3-C ) :  -0.6470 B(  1-C ,  4-C ) :   0.2466 
B(  1-C ,  6-H ) :  -0.2388 B(  1-C ,  8-N ) :   0.1139 B(  1-C ,  9-N ) :   0.1380 
B(  1-C , 11-C ) :   0.2245 B(  2-C ,  3-C ) :   0.1694 B(  2-C ,  4-C ) :  -0.8167 
B(  2-C ,  5-C ) :  -0.2736 B(  2-C ,  8-N ) :   1.0500 B(  2-C ,  9-N ) :  -0.7042 
B(  3-C ,  4-C ) :  -0.8568 B(  3-C ,  5-C ) :  -0.7226 B(  3-C ,  7-H ) :   0.2620 
B(  3-C ,  8-N ) :  -0.4179 B(  3-C ,  9-N ) :   0.1576 B(  3-C , 10-H ) :   0.1039 
B(  3-C , 11-C ) :  -0.1056 B(  3-C , 12-O ) :  -0.1235 B(  3-C , 13-O ) :   0.2658 
B(  4-C ,  5-C ) :   1.4723 B(  4-C ,  7-H ) :  -0.6824 B(  4-C , 10-H ) :   0.2256 
B(  4-C , 11-C ) :  -0.7484 B(  5-C ,  6-H ) :   0.1715 B(  5-C ,  7-H ) :   0.4522 
B(  5-C , 10-H ) :  -0.2572 B(  5-C , 11-C ) :   0.2664 B(  7-H , 11-C ) :   0.1080 
B(  8-N ,  9-N ) :   1.2085 B( 11-C , 12-O ) :   1.6422 B( 11-C , 13-O ) :   0.2455 
B( 12-O , 13-O ) :   0.1433 B( 13-O , 14-H ) :   0.9111 

-------
TIMINGS
-------

Total SCF time: 0 days 0 hours 1 min 13 sec 

Total time                  ....      73.426 sec
Sum of individual times     ....      72.651 sec  ( 98.9%)

Fock matrix formation       ....      60.612 sec  ( 82.5%)
  XC integration            ....       8.676 sec  ( 14.3% of F)
    Basis function eval.    ....       1.983 sec  ( 22.9% of XC)
    Density eval.           ....       2.190 sec  ( 25.2% of XC)
    XC-Functional eval.     ....       0.235 sec  (  2.7% of XC)
    XC-Potential eval.      ....       2.454 sec  ( 28.3% of XC)
Diagonalization             ....       0.254 sec  (  0.3%)
Density matrix formation    ....       0.295 sec  (  0.4%)
Population analysis         ....       0.044 sec  (  0.1%)
Initial guess               ....       0.601 sec  (  0.8%)
Orbital Transformation      ....       0.000 sec  (  0.0%)
Orbital Orthonormalization  ....       0.000 sec  (  0.0%)
DIIS solution               ....       0.861 sec  (  1.2%)
SOSCF solution              ....       0.569 sec  (  0.8%)
Grid generation             ....       9.414 sec  ( 12.8%)

-------------------------   --------------------
FINAL SINGLE POINT ENERGY      -529.046932736658
-------------------------   --------------------



------------------------------------------------------------------------------- 
                         Nudged Elastic Band Calculation                       
------------------------------------------------------------------------------- 

Number of images (incl. end points)     ....  14
Number of intermediate images           ....  12
Number of optimized images              ....  12
Optimization of end points before NEB   ....  NO
Number of atoms                         ....  15
Number of (active) degrees of freedom   ....  45
Constrained atoms                       ....  None

-----------------------------------------
  REACTANT (ANGSTROEM)
-----------------------------------------
C     -1.380309    -1.474083    -1.049887 
C      0.037791    -1.312152    -1.112491 
C      0.386285     0.025614    -0.908886 
C     -0.438243     1.170772    -0.663061 
C     -1.797761     0.896514    -0.623307 
C     -2.263069    -0.422899    -0.816645 
H     -1.800224    -2.474414    -1.191937 
H     -2.489127     1.717140    -0.440896 
N      1.786921     0.171602    -0.973683 
N      2.898673     0.152098    -1.049392 
H     -3.339464    -0.606298    -0.779482 
C      0.002049     2.575013    -0.453584 
O     -0.738595     3.511869    -0.248400 
O      1.355246     2.724983    -0.512762 
H      1.538528     3.666842    -0.364877 

-----------------------------------------
  PRODUCT (ANGSTROEM)
-----------------------------------------
C     -1.900600    -1.503000    -1.054400 
C     -0.567200    -1.127500    -1.096100 
C     -0.084800     0.015900    -0.933300 
C     -0.804700     1.177200    -0.669500 
C     -2.196400     0.910300    -0.603700 
C     -2.721900    -0.378300    -0.788800 
H     -2.306800    -2.502400    -1.198100 
H     -2.863700     1.748600    -0.401300 
N      4.770500     0.167500    -0.467000 
N      5.048700     0.150100    -1.535700 
H     -3.801600    -0.524700    -0.727000 
C     -0.272700     2.547400    -0.470600 
O     -0.952700     3.526600    -0.242300 
O      1.078300     2.594800    -0.572300 
H      1.334300     3.520200    -0.429100 



----------------------
NEB settings
----------------------
Method type                             ....  climbing image
Threshold for climbing image            ....  2.00e-02 Eh/Bohr 
Free endpoints                          ....  off 
Tangent type                            ....  improved 
Number of intermediate images           ....  12 
Number of images free to move           ....  12 
Spring type for image distribution      ....  distance between adjacent images 
Spring constant                         ....  1.00e-01 Eh/Bohr^2 
Spring force perp. to the path          ....  tan 
Generation of initial path              ....  image dependent pair potential 
Initial path via TS guess               ....  off 

Minimization of RMSD: Rotation          ....  always 
Minimization of RMSD: Translation type  ....  centroid 
Center fixed to origin                  ....  true 

Reparametrization of the path           ....  on reset 
               Every 0 iterations
               Type of interpolation    ....  linear
Convergence thresholds:
Convergence monitored for               ....  all images
Scaling factor                          ....  100.00

Convergence parameters for regular images:
               Max(|Fp|)                ....  1.00e-01 Eh/Bohr
               RMS(Fp)                  ....  5.00e-02 Eh/Bohr

Convergence parameters for climbing image:
               Max(|F|)                 ....  1.00e-03 Eh/Bohr
               RMS(F)                   ....  5.00e-04 Eh/Bohr
Optimization method:
Method                                  ....  L-BFGS (global)
Max. iterations                         ....  1000 
Step size                               ....  1.00 
Maximum allowed step size               ....  0.10 Bohr
Turn on L-BFGS                          ....  0.0000 Eh/Bohr

LBFGS parameters: 
               Memory                   ....  7 
Generation of  the initial path:
Minimize RMSD between reactant and product configurations     .... done
       RMSD before minimization         ....  1.9717 Bohr
       RMSD after minimization          ....  1.9714 Bohr
Performing linear interpolation         ....  done
Interpolation using                     ....  IDPP (Image Dependent Pair Potential)
IDPP-Settings:
       Convergence tolerance            ....  0.0100 1/Ang.^3
       Max. numer of iterations         ....    7000
       Spring constant                  ....  1.0000 1/Ang.^4
       Time step                        ....  0.0100 fs
       Max. movement per iteration      ....  0.0500 Ang.
       Full print                       ....  false 
IDPP successfuly converged in 71 iterations
Displacement along initial path:              7.6699 Bohr
Writing initial trajectory to file      ....  2-HOOC-C6H3-N2-NEB-TS_initial_path.trj



----------------------
NEB OPTIMIZATION      
----------------------

Following output files will be written:
Energy profile during opt. written to    ....  2-HOOC-C6H3-N2-NEB-TS.interp
Optimization log-file                    ....  2-HOOC-C6H3-N2-NEB-TS.log
Current trajectory will be written to    ....  2-HOOC-C6H3-N2-NEB-TS_MEP.trj
       and to allxyz file                ....  2-HOOC-C6H3-N2-NEB-TS_MEP.allxyz
       and individual images to xyz file ....  2-HOOC-C6H3-N2-NEB-TS_im{NIm}.xyz
Trajectory history will be written to    ....  2-HOOC-C6H3-N2-NEB-TS_MEP_ALL.trj
Converged CI will be written to          ....  2-HOOC-C6H3-N2-NEB-TS_CI-NEB_converged.xyz
Converged TS will be written to          ....  2-HOOC-C6H3-N2-NEB-TS.xyz

Single point energy and gradient calculation of reactant and
product configurations (have to be performed only once)
Properties of fixed NEB end points:
               Reactant:
                         E               ....   -529.046933 Eh
                         RMS(F)          ....      0.000208 Eh/Bohr
                         MAX(|F|)        ....      0.001033 Eh/Bohr
               Product:
                         E               ....   -529.088322 Eh
                         RMS(F)          ....      0.000143 Eh/Bohr
                         MAX(|F|)        ....      0.000488 Eh/Bohr



Starting iterations:

Optim.  Iteration  HEI  E(HEI)-E(0)  max(|Fp|)   RMS(Fp)    dS
Switch-on CI threshold               0.020000 
List of participating nodes    ...  2-HOOC-C6H3-N2-NEB-TS.hostnames
LBFGS(G)     0      1    0.009720    0.111475   0.028199  7.6696       
LBFGS(G)     1      1    0.009716    0.111396   0.028175  7.6696       
LBFGS(G)     2      1    0.006403    0.034684   0.008539  7.6818       
LBFGS(G)     3      1    0.005784    0.034108   0.010258  7.6914       
LBFGS(G)     4      1    0.005064    0.017390   0.005893  7.6991       

Image  1 will be converted to a climbing image in the next iteration (max(|Fp|) < 0.0200) 

Optim.  Iteration  CI   E(CI)-E(0)   max(|Fp|)   RMS(Fp)    dS     max(|FCI|)   RMS(FCI)
Convergence thresholds               0.100000   0.050000            0.001000    0.000500 
LBFGS(G)     5      1    0.004780    0.015841   0.003569  7.7007    0.014778    0.006049       
LBFGS(G)     6      1    0.004373    0.015044   0.004027  7.7064    0.013155    0.004967       
LBFGS(G)     7      1    0.003811    0.017765   0.005941  7.7393    0.028024    0.010986       
LBFGS(G)     8      1    0.003212    0.021294   0.007159  7.7985    0.021850    0.007271       
LBFGS(G)     9      1    0.003171    0.010681   0.003581  7.8208    0.021108    0.006375       
LBFGS(G)    10      1    0.003205    0.010573   0.003443  7.8306    0.014364    0.004716       
LBFGS(G)    11      1    0.003336    0.012944   0.004266  7.8519    0.007584    0.003754       
LBFGS(G)    12      1    0.003995    0.021563   0.005751  7.9379    0.017435    0.006012       
LBFGS(G)    13      1    0.004609    0.049456   0.011420  8.0380    0.018628    0.006707       
LBFGS(G)    14      1    0.004653    0.009444   0.003144  8.0625    0.009885    0.003972       
LBFGS(G)    15      1    0.004579    0.007538   0.002157  8.0590    0.008256    0.003533       
LBFGS(G)    16      1    0.004301    0.007477   0.002169  8.0416    0.007657    0.003026       
LBFGS(G)    17      1    0.003829    0.018638   0.003756  8.0099    0.006398    0.002876       
LBFGS(G)    18      1    0.003532    0.025593   0.006007  7.9910    0.006751    0.003036       
LBFGS(G)    19      1    0.003482    0.006125   0.002362  7.9891    0.003947    0.002281       
LBFGS(G)    20      1    0.003448    0.009035   0.001921  7.9878    0.002294    0.001436       
LBFGS(G)    21      1    0.003446    0.006184   0.001756  7.9859    0.004577    0.001852       
LBFGS(G)    22      1    0.003484    0.025994   0.003285  7.9845    0.009917    0.003614       
LBFGS(G)    23      1    0.003463    0.010105   0.001870  7.9847    0.005821    0.002259       
LBFGS(G)    24      1    0.003469    0.006480   0.001382  7.9907    0.002846    0.001487       
LBFGS(G)    25      1    0.003471    0.006458   0.001362  8.0013    0.001642    0.001165       
LBFGS(G)    26      1    0.003516    0.017370   0.004235  8.0368    0.014744    0.005055       
LBFGS(G)    27      1    0.003480    0.014079   0.003541  8.0847    0.011344    0.003762       
LBFGS(G)    28      1    0.003436    0.014757   0.002834  8.1181    0.008032    0.002509       
LBFGS(G)    29      1    0.003433    0.008383   0.002368  8.1699    0.010403    0.003245       
LBFGS(G)    30      1    0.003386    0.008462   0.001622  8.3057    0.003261    0.001660       
LBFGS(G)    31      1    0.003385    0.008434   0.001679  8.3841    0.005916    0.001876       
LBFGS(G)    32      1    0.003436    0.011044   0.003229  8.6055    0.003422    0.001716       
LBFGS(G)    33      1    0.003541    0.013927   0.004135  8.8054    0.008335    0.003016       
LBFGS(G)    34      1    0.003625    0.019312   0.003954  9.0086    0.004584    0.002440       
LBFGS(G)    35      1    0.003656    0.010272   0.002588  9.1339    0.004042    0.002303       
LBFGS(G)    36      1    0.003692    0.010243   0.002547  9.3039    0.003021    0.002095       
LBFGS(G)    37      1    0.003739    0.009556   0.002073  9.6261    0.002983    0.001990       
LBFGS(G)    38      1    0.003773    0.017010   0.004175  9.9881    0.004952    0.002550       
LBFGS(G)    39      1    0.003743    0.021432   0.004166  10.3671    0.009439    0.003447       
LBFGS(G)    40      1    0.003604    0.020364   0.004303  10.7599    0.007185    0.003476       
LBFGS(G)    41      1    0.003355    0.035741   0.007489  10.9917    0.015935    0.005190       
LBFGS(G)    42      1    0.003099    0.017251   0.003481  11.4107    0.016048    0.005329       
LBFGS(G)    43      1    0.002771    0.027613   0.005230  11.8345    0.013007    0.004936       
LBFGS(G)    44      1    0.002678    0.018280   0.003953  11.8535    0.012349    0.004552       
LBFGS(G)    45      1    0.002305    0.033995   0.007634  12.2300    0.022311    0.006535       
LBFGS(G)    46      1    0.001963    0.055790   0.012503  12.6346    0.029734    0.008789       
LBFGS(G)    47      1    0.001627    0.077165   0.017425  13.0468    0.035456    0.010696       
LBFGS(G)    48      1    0.001319    0.103937   0.023156  13.4802    0.040878    0.012594       
LBFGS(G)    49      1    0.000874    0.102381   0.016362  13.4911    0.015218    0.006288       
LBFGS(G)    50      1    0.001236    0.039914   0.009802  13.1550    0.030610    0.010040       
LBFGS(G)    51      1    0.001113    0.017114   0.003747  13.0876    0.012318    0.005717       
LBFGS(G)    52      1    0.001060    0.009575   0.002422  13.1172    0.013592    0.005591       
LBFGS(G)    53      1    0.000902    0.028908   0.004392  13.1894    0.015793    0.005528       
LBFGS(G)    54      1    0.000835    0.017368   0.003102  13.1951    0.012721    0.005366       
LBFGS(G)    55      1    0.000787    0.016414   0.003282  13.2791    0.012298    0.005632       
LBFGS(G)    56      1    0.001089    0.040545   0.007599  13.3636    0.012076    0.005287       
LBFGS(G)    57      1    0.001610    0.051119   0.008745  13.5508    0.021977    0.006879       
LBFGS(G)    58      1    0.002185    0.038462   0.007335  13.7730    0.010676    0.005464       
LBFGS(G)    59      1    0.002960    0.021985   0.004645  14.0677    0.013622    0.005884       
LBFGS(G)    60      1    0.003901    0.014316   0.003710  14.3719    0.022915    0.007931       
LBFGS(G)    61      1    0.005458    0.054326   0.008994  14.7255    0.051437    0.017575       
LBFGS(G)    62      1    0.004763    0.007811   0.002560  14.7068    0.021277    0.007095       
LBFGS(G)    63      1    0.005436    0.042086   0.007429  14.9661    0.019352    0.006960       
LBFGS(G)    64      1    0.005688    0.024038   0.004417  15.0433    0.028669    0.009935       
LBFGS(G)    65      1    0.006179    0.027888   0.004924  15.3067    0.026294    0.009301       
LBFGS(G)    66      1    0.006724    0.048193   0.007453  15.6057    0.019967    0.007654       
LBFGS(G)    67      1    0.007259    0.040101   0.007213  15.9133    0.007610    0.004605       
Warning: maximum angle between images (3 - 4 - 5): 129.87
LBFGS(G)    68      1    0.007060    0.055817   0.007268  15.7676    0.026041    0.010253       
LBFGS(G)    69      1    0.006587    0.031487   0.004715  15.6633    0.011339    0.005085       
LBFGS(G)    70      1    0.006115    0.022175   0.002711  15.4972    0.006905    0.003100       
LBFGS(G)    71      1    0.005785    0.022368   0.003184  15.3336    0.008205    0.003514       
LBFGS(G)    72      1    0.005547    0.007129   0.001991  15.2267    0.006530    0.002466       
LBFGS(G)    73      1    0.005116    0.014507   0.002998  15.0159    0.006274    0.003003       
LBFGS(G)    74      1    0.004580    0.013245   0.003688  14.7076    0.015601    0.005500       
LBFGS(G)    75      1    0.004026    0.042707   0.006292  14.4867    0.011567    0.004961       
LBFGS(G)    76      1    0.003571    0.040224   0.005998  14.3341    0.013694    0.005438       
LBFGS(G)    77      1    0.003158    0.053532   0.009430  14.1336    0.031906    0.010617       
LBFGS(G)    78      1    0.002698    0.040081   0.006862  14.0906    0.013090    0.004748       
LBFGS(G)    79      1    0.002696    0.055481   0.010340  14.0721    0.017195    0.005573       
LBFGS(G)    80      1    0.002752    0.038422   0.005676  14.1747    0.014142    0.004841       
LBFGS(G)    81      1    0.002744    0.012103   0.002537  14.1857    0.007863    0.003895       
LBFGS(G)    82      1    0.002864    0.034937   0.005184  14.2612    0.014139    0.004591       
LBFGS(G)    83      1    0.003225    0.061789   0.009010  14.4490    0.019991    0.006199       
LBFGS(G)    84      1    0.003655    0.062855   0.010128  14.6782    0.018903    0.006224       
LBFGS(G)    85      1    0.004141    0.051910   0.007992  14.9244    0.019515    0.006772       
LBFGS(G)    86      1    0.004569    0.034590   0.006891  15.2187    0.010807    0.005450       
LBFGS(G)    87      1    0.004710    0.057267   0.011162  15.4242    0.009227    0.004333       
LBFGS(G)    88      1    0.004903    0.016292   0.002249  15.6245    0.009259    0.004254       
LBFGS(G)    89      1    0.005252    0.051966   0.009886  15.9848    0.009401    0.004221       
LBFGS(G)    90      1    0.005072    0.029175   0.004770  15.8736    0.009196    0.004028       
LBFGS(G)    91      1    0.005114    0.049963   0.009367  16.0314    0.014289    0.005010       
LBFGS(G)    92      1    0.005315    0.093644   0.014689  16.2602    0.018699    0.006847       
LBFGS(G)    93      1    0.005642    0.107444   0.017118  16.5520    0.022247    0.008761       
LBFGS(G)    94      1    0.005997    0.087017   0.015589  16.8983    0.022110    0.009634       
LBFGS(G)    95      1    0.005489    0.153741   0.020855  17.0112    0.019814    0.007459       
LBFGS(G)    96      1    0.005523    0.089702   0.012497  17.1691    0.013226    0.005958       
LBFGS(G)    97      1    0.005357    0.040475   0.005150  17.3319    0.008985    0.004598       
Warning: maximum angle between images (0 - 1 - 2): 97.61
LBFGS(G)    98      1    0.005140    0.030825   0.004297  17.4586    0.008514    0.004005       
LBFGS(G)    99      1    0.004954    0.054437   0.007756  17.7324    0.012643    0.004912       
LBFGS(G)   100      1    0.004762    0.054468   0.006417  17.9457    0.009142    0.005120       
LBFGS(G)   101      1    0.004662    0.045821   0.005722  18.2378    0.008482    0.006088       
LBFGS(G)   102      1    0.004509    0.032039   0.006009  18.5356    0.009439    0.006760       
LBFGS(G)   103      1    0.004289    0.038848   0.007757  18.8606    0.010161    0.007076       
LBFGS(G)   104      1    0.003903    0.031944   0.006386  19.1386    0.010173    0.006844       
LBFGS(G)   105      1    0.003515    0.036790   0.006941  19.4820    0.009898    0.006496       
LBFGS(G)   106      1    0.003107    0.025282   0.005207  19.8263    0.009686    0.005981       
LBFGS(G)   107      1    0.002713    0.041694   0.007868  20.1965    0.010054    0.005701       
LBFGS(G)   108      1    0.002341    0.034106   0.006186  20.5452    0.010543    0.005397       
LBFGS(G)   109      1    0.002035    0.045634   0.009210  20.9310    0.009678    0.005040       
LBFGS(G)   110      1    0.001782    0.048683   0.009948  21.3132    0.010712    0.004900       
LBFGS(G)   111      1    0.001657    0.058133   0.013364  21.6459    0.014525    0.004892       
LBFGS(G)   112      1    0.001538    0.045583   0.011023  22.1000    0.015242    0.005043       
LBFGS(G)   113      1    0.001495    0.034177   0.007332  22.5693    0.013352    0.004921       
LBFGS(G)   114      1    0.001526    0.041675   0.008237  23.0697    0.012714    0.004965       
LBFGS(G)   115      1    0.001609    0.064632   0.012712  23.6096    0.012738    0.005094       
LBFGS(G)   116      1    0.001786    0.070028   0.014539  24.1500    0.009689    0.005035       
LBFGS(G)   117      1    0.002017    0.086384   0.017279  24.7292    0.009992    0.005033       
LBFGS(G)   118      1    0.002296    0.068261   0.013700  25.2556    0.009169    0.004983       
LBFGS(G)   119      1    0.002607    0.061394   0.013079  25.8350    0.012073    0.004901       
LBFGS(G)   120      1    0.002932    0.057678   0.012613  26.3875    0.012805    0.004844       
LBFGS(G)   121      1    0.003192    0.136351   0.026457  26.5990    0.008934    0.004322       
LBFGS(G)   122      1    0.003540    0.074503   0.015547  27.2442    0.009975    0.004258       
LBFGS(G)   123      1    0.003911    0.044039   0.008555  27.9061    0.012620    0.004434       
LBFGS(G)   124      1    0.004261    0.031927   0.007350  28.5002    0.012253    0.004361       
LBFGS(G)   125      1    0.004630    0.074212   0.016061  29.1264    0.012878    0.004444       
LBFGS(G)   126      1    0.004944    0.090407   0.018492  29.6389    0.008930    0.004085       
LBFGS(G)   127      1    0.005236    0.083968   0.016437  30.1677    0.008785    0.004003       
Warning: Negative curvature. Reseting optimizer..
Warning: maximum angle between images (2 - 3 - 4): 147.65
LBFGS(G)   128      1    0.005236    0.083968   0.016437  30.1677    0.008779    0.004003       
LBFGS(G)   129      1    0.005223    0.059790   0.011276  30.1474    0.008643    0.003970       
LBFGS(G)   130      1    0.005146    0.031345   0.006110  30.0973    0.008099    0.003798       
LBFGS(G)   131      1    0.005105    0.024793   0.005718  30.1135    0.007965    0.003715       
LBFGS(G)   132      1    0.004800    0.040687   0.006707  30.2793    0.006742    0.003149       
LBFGS(G)   133      1    0.004586    0.045735   0.007055  30.4967    0.005640    0.002930       
LBFGS(G)   134      1    0.004440    0.042846   0.008213  30.7467    0.004704    0.002949       
LBFGS(G)   135      1    0.004351    0.043052   0.008964  31.0431    0.005456    0.003170       
LBFGS(G)   136      1    0.004316    0.043852   0.010241  31.3888    0.006327    0.003548       
LBFGS(G)   137      1    0.004305    0.032952   0.009305  31.7596    0.006775    0.003836       
Warning: Negative curvature. Reseting optimizer..

Possible intermediate minimum found at image(s): 3 
  => have a look at the .interp file.
  => it is often a good idea to divide the path calculation into smaller fragments. 

LBFGS(G)   138      1    0.004305    0.032952   0.009305  31.7596    0.006774    0.003837       
LBFGS(G)   139      1    0.004276    0.026644   0.006833  31.7601    0.006398    0.003658       
LBFGS(G)   140      1    0.004029    0.124316   0.019321  31.8109    0.003758    0.002134       
LBFGS(G)   141      1    0.003961    0.137225   0.022149  32.0469    0.003894    0.002508       
LBFGS(G)   142      1    0.004029    0.103282   0.019088  32.3728    0.006551    0.003869       
LBFGS(G)   143      1    0.004180    0.091190   0.016977  32.7273    0.009835    0.005261       
LBFGS(G)   144      1    0.004404    0.083420   0.015639  33.0855    0.012912    0.006640       
LBFGS(G)   145      1    0.004615    0.090188   0.015679  33.4056    0.015131    0.007660       
LBFGS(G)   146      1    0.004802    0.086284   0.015732  33.7378    0.016719    0.008425       
LBFGS(G)   147      1    0.004793    0.084237   0.013871  33.9894    0.016441    0.008376       
LBFGS(G)   148      1    0.004784    0.087150   0.014923  34.2591    0.016099    0.008310       
LBFGS(G)   149      1    0.004773    0.092574   0.015396  34.5177    0.015712    0.008225       
LBFGS(G)   150      1    0.004746    0.093036   0.017134  34.7637    0.015116    0.008060       
LBFGS(G)   151      1    0.004677    0.096415   0.015888  34.9605    0.014096    0.007710       
LBFGS(G)   152      1    0.004538    0.121462   0.018460  35.1233    0.012466    0.007097       
LBFGS(G)   153      1    0.004360    0.082079   0.014762  35.1554    0.010358    0.006257       
LBFGS(G)   154      1    0.004206    0.102027   0.016322  35.0902    0.008486    0.005515       
LBFGS(G)   155      1    0.004096    0.091198   0.013719  34.9656    0.007153    0.004943       
LBFGS(G)   156      1    0.004017    0.088422   0.012594  34.8485    0.006179    0.004539       
LBFGS(G)   157      1    0.003964    0.063667   0.010968  34.6995    0.005713    0.004264       
Warning: maximum angle between images (2 - 3 - 4): 132.13
LBFGS(G)   158      1    0.003920    0.076465   0.011227  34.6210    0.005426    0.004028       
LBFGS(G)   159      1    0.003891    0.070902   0.009608  34.4657    0.005196    0.003890       
LBFGS(G)   160      1    0.003860    0.021460   0.005306  34.4449    0.004937    0.003720       
LBFGS(G)   161      1    0.003827    0.047035   0.007421  34.3982    0.004653    0.003527       
LBFGS(G)   162      1    0.003801    0.036769   0.006659  34.4022    0.004403    0.003370       
LBFGS(G)   163      1    0.003773    0.096432   0.013700  34.3060    0.004165    0.003213       
LBFGS(G)   164      1    0.003750    0.102026   0.016000  34.3167    0.003925    0.003066       
LBFGS(G)   165      1    0.003727    0.114700   0.017237  34.3459    0.003731    0.002923       
LBFGS(G)   166      1    0.003705    0.044096   0.010138  34.4715    0.003597    0.002786       
LBFGS(G)   167      1    0.003682    0.035493   0.008515  34.5331    0.003440    0.002621       
LBFGS(G)   168      1    0.003646    0.036217   0.009086  34.5512    0.003185    0.002385       
LBFGS(G)   169      1    0.003612    0.044271   0.007337  34.5596    0.002922    0.002158       
LBFGS(G)   170      1    0.003578    0.038428   0.007242  34.5609    0.002646    0.001932       
LBFGS(G)   171      1    0.003546    0.046486   0.006673  34.5906    0.002362    0.001710       
LBFGS(G)   172      1    0.003518    0.050052   0.006365  34.6013    0.002086    0.001500       
LBFGS(G)   173      1    0.003489    0.050958   0.010114  34.6177    0.001832    0.001313       
LBFGS(G)   174      1    0.003466    0.048778   0.007969  34.6979    0.001489    0.001110       
LBFGS(G)   175      1    0.003446    0.041129   0.007382  34.8061    0.001329    0.000934       
LBFGS(G)   176      1    0.003422    0.059712   0.013520  34.7403    0.001437    0.000718       
LBFGS(G)   177      1    0.003406    0.071729   0.014946  34.8215    0.001214    0.000571       
LBFGS(G)   178      1    0.003395    0.042852   0.011020  34.8075    0.001037    0.000456       
LBFGS(G)   179      1    0.003390    0.029669   0.007804  34.9232    0.000963    0.000453       

                                .--------------------.
          ----------------------| CI-NEB convergence |-------------------------
          Item                value                   Tolerance       Converged
          ---------------------------------------------------------------------
          RMS(Fp)             0.0078038727            0.0500000000      YES
          MAX(|Fp|)           0.0296694040            0.1000000000      YES
          RMS(FCI)            0.0004530687            0.0005000000      YES
          MAX(|FCI|)          0.0009628817            0.0010000000      YES
          ---------------------------------------------------------------------

The elastic band and climbing image have converged succesfully to a MEP in 179 iterations!


                    *********************H U R R A Y*********************
                    ***        THE NEB OPTIMIZATION HAS CONVERGED     ***
                    *****************************************************



---------------------------------------------------------------
                         PATH SUMMARY              
---------------------------------------------------------------
All forces in Eh/Bohr.

Image Dist.(Ang.)    E(Eh)   dE(kcal/mol)  max(|Fp|)  RMS(Fp)
  0     0.000    -529.04693      0.00       0.00094   0.00034
  1     0.258    -529.04354      2.13       0.00073   0.00039 <= CI
  2     2.052    -529.08669    -24.95       0.00931   0.00446
  3     3.898    -529.08769    -25.57       0.01967   0.00727
  4     5.635    -529.08416    -23.36       0.01128   0.00551
  5     7.318    -529.05696     -6.29       0.02663   0.01372
  6     8.932    -529.08458    -23.63       0.01321   0.00658
  7    10.682    -529.08742    -25.41       0.01865   0.01129
  8    12.349    -529.08792    -25.72       0.02039   0.01118
  9    13.695    -529.08778    -25.63       0.01533   0.00739
 10    14.927    -529.08796    -25.74       0.00795   0.00326
 11    16.141    -529.08731    -25.34       0.02901   0.01138
 12    17.318    -529.08833    -25.98       0.00196   0.00073
 13    18.481    -529.08832    -25.97       0.00048   0.00025

Straight line distance between images along the path:
        D( 0- 1) =   0.2578 Ang.
        D( 1- 2) =   1.7939 Ang.
        D( 2- 3) =   1.8464 Ang.
        D( 3- 4) =   1.7368 Ang.
        D( 4- 5) =   1.6834 Ang.
        D( 5- 6) =   1.6140 Ang.
        D( 6- 7) =   1.7493 Ang.
        D( 7- 8) =   1.6679 Ang.
        D( 8- 9) =   1.3452 Ang.
        D( 9-10) =   1.2326 Ang.
        D(10-11) =   1.2136 Ang.
        D(11-12) =   1.1774 Ang.
        D(12-13) =   1.1623 Ang.

---------------------------------------------------------------
               INFORMATION ABOUT SADDLE POINT     
---------------------------------------------------------------

Climbing image                            ....  1 
Energy                                    ....  -529.04354305 Eh
Max. abs. force                           ....  9.6288e-04 Eh/Bohr

-----------------------------------------
  SADDLE POINT (ANGSTROEM)
-----------------------------------------
C     -0.967574    -2.160437    -0.303288 
C      0.437086    -1.941186    -0.350139 
C      0.740647    -0.654497    -0.151015 
C     -0.039438     0.493116     0.090927 
C     -1.408366     0.203584     0.127401 
C     -1.863504    -1.112792    -0.068417 
H     -1.367408    -3.166248    -0.458560 
[...]
Kinetic Energy     :          525.83925805 Eh           14308.81366 eV
Virial Ratio       :            2.00609371


DFT components:
N(Alpha)           :       37.999999275400 electrons
N(Beta)            :       37.999999275400 electrons
N(Total)           :       75.999998550801 electrons
E(X)               :      -53.458323631386 Eh       
E(C)               :       -3.382072414332 Eh       
E(XC)              :      -56.840396045718 Eh       
DFET-embed. en.    :        0.000000000000 Eh       

---------------
SCF CONVERGENCE
---------------

  Last Energy change         ...    1.3131e-10  Tolerance :   1.0000e-08
  Last MAX-Density change    ...    6.7933e-03  Tolerance :   1.0000e-07
  Last RMS-Density change    ...    1.0264e-04  Tolerance :   5.0000e-09
  Last Orbital Gradient      ...    1.9299e-06  Tolerance :   1.0000e-05
  Last Orbital Rotation      ...    4.2636e-06  Tolerance :   1.0000e-05

             **** THE GBW FILE WAS UPDATED (2-HOOC-C6H3-N2-NEB-TS.gbw) ****
             **** DENSITY FILE WAS UPDATED (2-HOOC-C6H3-N2-NEB-TS.scfp.tmp) ****
             **** ENERGY FILE WAS UPDATED (2-HOOC-C6H3-N2-NEB-TS.en.tmp) ****
----------------
ORBITAL ENERGIES
----------------

  NO   OCC          E(Eh)            E(eV) 
   0   2.0000     -19.223425      -523.0960 
   1   2.0000     -19.162603      -521.4409 
   2   2.0000     -14.520083      -395.1115 
   3   2.0000     -14.493139      -394.3784 
   4   2.0000     -10.349724      -281.6303 
   5   2.0000     -10.277274      -279.6588 
   6   2.0000     -10.242160      -278.7034 
   7   2.0000     -10.219753      -278.0936 
   8   2.0000     -10.213764      -277.9306 
   9   2.0000     -10.212839      -277.9055 
  10   2.0000     -10.169932      -276.7379 
  11   2.0000      -1.183301       -32.1993 
  12   2.0000      -1.137626       -30.9564 
  13   2.0000      -1.047244       -28.4970 
  14   2.0000      -0.896653       -24.3992 
  15   2.0000      -0.802043       -21.8247 
  16   2.0000      -0.785643       -21.3784 
  17   2.0000      -0.699211       -19.0265 
  18   2.0000      -0.677765       -18.4429 
  19   2.0000      -0.609878       -16.5956 
  20   2.0000      -0.591575       -16.0976 
  21   2.0000      -0.545542       -14.8449 
  22   2.0000      -0.528052       -14.3690 
  23   2.0000      -0.527014       -14.3408 
  24   2.0000      -0.513805       -13.9814 
  25   2.0000      -0.500278       -13.6133 
  26   2.0000      -0.478784       -13.0284 
  27   2.0000      -0.477820       -13.0021 
  28   2.0000      -0.456262       -12.4155 
  29   2.0000      -0.431648       -11.7457 
  30   2.0000      -0.405538       -11.0353 
  31   2.0000      -0.393281       -10.7017 
  32   2.0000      -0.378662       -10.3039 
  33   2.0000      -0.352688        -9.5971 
  34   2.0000      -0.312730        -8.5098 
  35   2.0000      -0.288765        -7.8577 
  36   2.0000      -0.272330        -7.4105 
  37   2.0000      -0.216399        -5.8885 
  38   0.0000      -0.106024        -2.8850 
  39   0.0000      -0.098806        -2.6886 
  40   0.0000      -0.066901        -1.8205 
  41   0.0000      -0.021520        -0.5856 
  42   0.0000      -0.008245        -0.2244 
  43   0.0000      -0.003505        -0.0954 
  44   0.0000       0.014810         0.4030 
  45   0.0000       0.020168         0.5488 
  46   0.0000       0.027507         0.7485 
  47   0.0000       0.028198         0.7673 
  48   0.0000       0.035141         0.9562 
  49   0.0000       0.035969         0.9788 
  50   0.0000       0.054687         1.4881 
  51   0.0000       0.065005         1.7689 
  52   0.0000       0.067469         1.8359 
  53   0.0000       0.067890         1.8474 
  54   0.0000       0.072508         1.9730 
  55   0.0000       0.076179         2.0729 
  56   0.0000       0.086639         2.3576 
  57   0.0000       0.091006         2.4764 
  58   0.0000       0.092460         2.5160 
  59   0.0000       0.103801         2.8246 
  60   0.0000       0.108555         2.9539 
  61   0.0000       0.113292         3.0828 
  62   0.0000       0.118139         3.2147 
  63   0.0000       0.119190         3.2433 
  64   0.0000       0.122128         3.3233 
  65   0.0000       0.129384         3.5207 
  66   0.0000       0.135535         3.6881 
  67   0.0000       0.137498         3.7415 
  68   0.0000       0.148097         4.0299 
  69   0.0000       0.166023         4.5177 
  70   0.0000       0.170672         4.6442 
  71   0.0000       0.175212         4.7678 
  72   0.0000       0.180618         4.9149 
  73   0.0000       0.185940         5.0597 
  74   0.0000       0.189154         5.1471 
  75   0.0000       0.192735         5.2446 
  76   0.0000       0.198507         5.4016 
  77   0.0000       0.198846         5.4109 
  78   0.0000       0.202659         5.5146 
  79   0.0000       0.209292         5.6951 
  80   0.0000       0.215978         5.8771 
  81   0.0000       0.221301         6.0219 
  82   0.0000       0.229728         6.2512 
  83   0.0000       0.233984         6.3670 
  84   0.0000       0.235534         6.4092 
  85   0.0000       0.243297         6.6205 
  86   0.0000       0.249703         6.7948 
  87   0.0000       0.260514         7.0889 
  88   0.0000       0.262577         7.1451 
  89   0.0000       0.272749         7.4219 
  90   0.0000       0.275298         7.4912 
  91   0.0000       0.279081         7.5942 
  92   0.0000       0.285179         7.7601 
  93   0.0000       0.286539         7.7971 
  94   0.0000       0.294463         8.0127 
  95   0.0000       0.298000         8.1090 
  96   0.0000       0.307945         8.3796 
  97   0.0000       0.318430         8.6649 
  98   0.0000       0.321074         8.7369 
  99   0.0000       0.322743         8.7823 
 100   0.0000       0.341009         9.2793 
 101   0.0000       0.352951         9.6043 
 102   0.0000       0.356505         9.7010 
 103   0.0000       0.368311        10.0222 
 104   0.0000       0.382091        10.3972 
 105   0.0000       0.384354        10.4588 
 106   0.0000       0.390063        10.6141 
 107   0.0000       0.399126        10.8608 
 108   0.0000       0.404317        11.0020 
 109   0.0000       0.427824        11.6417 
 110   0.0000       0.429960        11.6998 
 111   0.0000       0.452252        12.3064 
 112   0.0000       0.468168        12.7395 
 113   0.0000       0.470289        12.7972 
 114   0.0000       0.485333        13.2066 
 115   0.0000       0.485852        13.2207 
 116   0.0000       0.493253        13.4221 
 117   0.0000       0.495847        13.4927 
 118   0.0000       0.511770        13.9260 
 119   0.0000       0.519320        14.1314 
 120   0.0000       0.529151        14.3989 
 121   0.0000       0.533598        14.5199 
 122   0.0000       0.541808        14.7433 
 123   0.0000       0.549879        14.9630 
 124   0.0000       0.552806        15.0426 
 125   0.0000       0.562009        15.2930 
 126   0.0000       0.564775        15.3683 
 127   0.0000       0.572148        15.5689 
 128   0.0000       0.581919        15.8348 
 129   0.0000       0.586501        15.9595 
 130   0.0000       0.594276        16.1711 
 131   0.0000       0.606267        16.4974 
 132   0.0000       0.610035        16.5999 
 133   0.0000       0.618253        16.8235 
 134   0.0000       0.628197        17.0941 
 135   0.0000       0.629708        17.1352 
 136   0.0000       0.636759        17.3271 
 137   0.0000       0.650640        17.7048 
 138   0.0000       0.654717        17.8158 
 139   0.0000       0.681147        18.5350 
 140   0.0000       0.687723        18.7139 
 141   0.0000       0.691896        18.8275 
 142   0.0000       0.701952        19.1011 
 143   0.0000       0.710582        19.3359 
 144   0.0000       0.711794        19.3689 
 145   0.0000       0.722831        19.6692 
 146   0.0000       0.727959        19.8088 
 147   0.0000       0.730660        19.8823 
 148   0.0000       0.739812        20.1313 
 149   0.0000       0.745446        20.2846 
 150   0.0000       0.756376        20.5820 
 151   0.0000       0.762987        20.7619 
 152   0.0000       0.771984        21.0068 
 153   0.0000       0.780147        21.2289 
 154   0.0000       0.786481        21.4012 
 155   0.0000       0.795685        21.6517 
 156   0.0000       0.802743        21.8437 
 157   0.0000       0.806047        21.9337 
 158   0.0000       0.823111        22.3980 
 159   0.0000       0.842514        22.9260 
 160   0.0000       0.852545        23.1989 
 161   0.0000       0.863584        23.4993 
 162   0.0000       0.870611        23.6905 
 163   0.0000       0.888407        24.1748 
 164   0.0000       0.894135        24.3306 
 165   0.0000       0.894715        24.3464 
 166   0.0000       0.897309        24.4170 
 167   0.0000       0.935249        25.4494 
 168   0.0000       0.958753        26.0890 
 169   0.0000       0.964988        26.2586 
 170   0.0000       0.976542        26.5730 
 171   0.0000       0.992281        27.0013 
 172   0.0000       1.007905        27.4265 
 173   0.0000       1.013039        27.5662 
 174   0.0000       1.041898        28.3515 
 175   0.0000       1.054404        28.6918 
 176   0.0000       1.074332        29.2341 
 177   0.0000       1.089896        29.6576 
 178   0.0000       1.116972        30.3944 
 179   0.0000       1.143830        31.1252 
 180   0.0000       1.162095        31.6222 
 181   0.0000       1.170181        31.8422 
 182   0.0000       1.183215        32.1969 
 183   0.0000       1.199284        32.6342 
 184   0.0000       1.212237        32.9866 
 185   0.0000       1.223068        33.2814 
 186   0.0000       1.227593        33.4045 
 187   0.0000       1.245369        33.8882 
 188   0.0000       1.265531        34.4369 
 189   0.0000       1.275488        34.7078 
 190   0.0000       1.277554        34.7640 
 191   0.0000       1.302305        35.4375 
 192   0.0000       1.328171        36.1414 
 193   0.0000       1.338434        36.4206 
 194   0.0000       1.344955        36.5981 
 195   0.0000       1.367615        37.2147 
 196   0.0000       1.372191        37.3392 
 197   0.0000       1.396144        37.9910 
 198   0.0000       1.400408        38.1070 
 199   0.0000       1.418047        38.5870 
 200   0.0000       1.428897        38.8823 
 201   0.0000       1.432236        38.9731 
 202   0.0000       1.472760        40.0758 
 203   0.0000       1.488184        40.4955 
 204   0.0000       1.494897        40.6782 
 205   0.0000       1.512431        41.1553 
 206   0.0000       1.521348        41.3980 
 207   0.0000       1.522904        41.4403 
 208   0.0000       1.529876        41.6301 
 209   0.0000       1.556580        42.3567 
 210   0.0000       1.564729        42.5784 
 211   0.0000       1.582338        43.0576 
 212   0.0000       1.609184        43.7881 
 213   0.0000       1.633537        44.4508 
 214   0.0000       1.643736        44.7283 
 215   0.0000       1.650463        44.9114 
 216   0.0000       1.660877        45.1948 
 217   0.0000       1.670796        45.4647 
 218   0.0000       1.680815        45.7373 
 219   0.0000       1.711848        46.5818 
 220   0.0000       1.714411        46.6515 
 221   0.0000       1.717632        46.7391 
 222   0.0000       1.736228        47.2452 
 223   0.0000       1.790023        48.7090 
 224   0.0000       1.805314        49.1251 
 225   0.0000       1.816486        49.4291 
 226   0.0000       1.860713        50.6326 
 227   0.0000       1.871607        50.9290 
 228   0.0000       1.887568        51.3633 
 229   0.0000       1.903845        51.8063 
 230   0.0000       1.926488        52.4224 
 231   0.0000       1.930422        52.5295 
 232   0.0000       1.954367        53.1810 
 233   0.0000       1.955832        53.2209 
 234   0.0000       1.976895        53.7940 
 235   0.0000       1.979075        53.8534 
 236   0.0000       1.997291        54.3490 
 237   0.0000       2.015534        54.8455 
 238   0.0000       2.045693        55.6661 
 239   0.0000       2.048816        55.7511 
 240   0.0000       2.061255        56.0896 
 241   0.0000       2.077065        56.5198 
 242   0.0000       2.096172        57.0397 
 243   0.0000       2.105263        57.2871 
 244   0.0000       2.118545        57.6486 
 245   0.0000       2.142435        58.2986 
 246   0.0000       2.165855        58.9359 
 247   0.0000       2.208183        60.0877 
 248   0.0000       2.213415        60.2301 
 249   0.0000       2.249252        61.2052 
 250   0.0000       2.249574        61.2140 
 251   0.0000       2.296442        62.4894 
 252   0.0000       2.309886        62.8552 
 253   0.0000       2.358921        64.1895 
 254   0.0000       2.379540        64.7506 
 255   0.0000       2.384357        64.8816 
 256   0.0000       2.470852        67.2353 
 257   0.0000       2.495077        67.8945 
 258   0.0000       2.511740        68.3479 
 259   0.0000       2.564320        69.7787 
 260   0.0000       2.596100        70.6435 
 261   0.0000       2.646693        72.0202 
 262   0.0000       2.692361        73.2629 
 263   0.0000       2.726422        74.1897 
 264   0.0000       2.765081        75.2417 
 265   0.0000       2.797991        76.1372 
 266   0.0000       2.837741        77.2189 
 267   0.0000       2.867316        78.0236 
 268   0.0000       2.876429        78.2716 
 269   0.0000       2.907096        79.1061 
 270   0.0000       2.911069        79.2142 
 271   0.0000       3.013731        82.0078 
 272   0.0000       3.090452        84.0955 
 273   0.0000       3.127291        85.0979 
 274   0.0000       3.146920        85.6320 
 275   0.0000       3.216440        87.5238 
 276   0.0000       3.296321        89.6975 
 277   0.0000       3.315533        90.2202 
 278   0.0000       3.320034        90.3427 
 279   0.0000       3.362286        91.4925 
 280   0.0000       3.389349        92.2289 
 281   0.0000       3.419032        93.0366 
 282   0.0000       3.482279        94.7576 
 283   0.0000       3.551013        96.6280 
 284   0.0000       3.595499        97.8385 
 285   0.0000       3.691666       100.4553 
 286   0.0000       3.740843       101.7935 
 287   0.0000       3.894481       105.9742 
 288   0.0000       3.989805       108.5681 
-------
TIMINGS
-------

Total SCF time: 0 days 0 hours 0 min 27 sec 

Total time                  ....      27.564 sec
Sum of individual times     ....      26.913 sec  ( 97.6%)

Fock matrix formation       ....      17.055 sec  ( 61.9%)
  XC integration            ....       2.231 sec  ( 13.1% of F)
    Basis function eval.    ....       0.585 sec  ( 26.2% of XC)
    Density eval.           ....       0.646 sec  ( 29.0% of XC)
    XC-Functional eval.     ....       0.070 sec  (  3.2% of XC)
    XC-Potential eval.      ....       0.429 sec  ( 19.2% of XC)
Diagonalization             ....       0.037 sec  (  0.1%)
Density matrix formation    ....       0.076 sec  (  0.3%)
Population analysis         ....       0.000 sec  (  0.0%)
Initial guess               ....       0.057 sec  (  0.2%)
Orbital Transformation      ....       0.000 sec  (  0.0%)
Orbital Orthonormalization  ....       0.028 sec  (  0.1%)
DIIS solution               ....       0.011 sec  (  0.0%)
SOSCF solution              ....       0.230 sec  (  0.8%)
Grid generation             ....       9.446 sec  ( 34.3%)

-------------------------   --------------------
FINAL SINGLE POINT ENERGY      -529.043568616261
-------------------------   --------------------

                                *** OPTIMIZATION RUN DONE ***


                    ***********************HURRAY************************
                    ***        THE TS OPTIMIZATION HAS CONVERGED      ***
                    *****************************************************



---------------------------------------------------------------
                      PATH SUMMARY FOR NEB-TS             
---------------------------------------------------------------
All forces in Eh/Bohr. Global forces for TS.

Image     E(Eh)   dE(kcal/mol)  max(|Fp|)  RMS(Fp)
  0    -529.04693     0.00       0.00094   0.00034
  1    -529.04354     2.13       0.00073   0.00039 <= CI
 TS    -529.04357     2.11       0.00022   0.00007 <= TS
  2    -529.08669   -24.95       0.00931   0.00446
  3    -529.08769   -25.57       0.01967   0.00727
  4    -529.08416   -23.36       0.01128   0.00551
  5    -529.05696    -6.29       0.02663   0.01372
  6    -529.08458   -23.63       0.01321   0.00658
  7    -529.08742   -25.41       0.01865   0.01129
  8    -529.08792   -25.72       0.02039   0.01118
  9    -529.08778   -25.63       0.01533   0.00739
 10    -529.08796   -25.74       0.00795   0.00326
 11    -529.08731   -25.34       0.02901   0.01138
 12    -529.08833   -25.98       0.00196   0.00073
 13    -529.08832   -25.97       0.00048   0.00025
----------
STATISTICS
----------

For the individual parts of the NEB, NEB-CI or NEB-TS run:

Number of iterations:
     NEB                               ... 180  91.8%
     TS optimization                   ... 16  8.2%
Number of SCF / gradient calculations:
     NEB                               ... 2162  99.3%
     TS optimization                   ... 16  0.7%

----------
 TIMINGS
----------

For the individual parts of the NEB, NEB-CI or NEB-TS run:

Total                                  ...   140556.019 sec
NEB                                    ...   139469.617 sec  99.2%
TS Optimization                        ...     1086.402 sec  0.8%


                            ***************************************
                            *     ORCA property calculations      *
                            ***************************************

                                    ---------------------
                                    Active property flags
                                    ---------------------
   (+) Dipole Moment


------------------------------------------------------------------------------
                       ORCA ELECTRIC PROPERTIES CALCULATION
------------------------------------------------------------------------------

Dipole Moment Calculation                       ... on
Quadrupole Moment Calculation                   ... off
Polarizability Calculation                      ... off
GBWName                                         ... 2-HOOC-C6H3-N2-NEB-TS.gbw
Electron density file                           ... 2-HOOC-C6H3-N2-NEB-TS.scfp.tmp
The origin for moment calculation is the CENTER OF MASS  = ( 0.847055,  0.284452 -0.005764)

-------------
DIPOLE MOMENT
-------------
                                X             Y             Z
Electronic contribution:      6.23706       1.46187      -0.14963
Nuclear contribution   :     -5.84568      -0.93937       0.21299
                        -----------------------------------------
Total Dipole Moment    :      0.39138       0.52250       0.06336
                        -----------------------------------------
Magnitude (a.u.)       :      0.65590
Magnitude (Debye)      :      1.66716



--------------------
Rotational spectrum 
--------------------
 
Rotational constants in cm-1:     0.048485     0.039890     0.021885 
Rotational constants in MHz :  1453.542687  1195.862515   656.085836 

 Dipole components along the rotational axes: 
x,y,z [a.u.] :     0.654060    -0.049046    -0.000143 
x,y,z [Debye]:     1.662488    -0.124665    -0.000365 

 

Timings for individual modules:

Sum of individual times         ...     1323.451 sec (=  22.058 min)
GTO integral calculation        ...       44.919 sec (=   0.749 min)   3.4 %
SCF iterations                  ...      992.684 sec (=  16.545 min)  75.0 %
SCF Gradient evaluation         ...      283.825 sec (=   4.730 min)  21.4 %
Geometry relaxation             ...        2.024 sec (=   0.034 min)   0.2 %
                             ****ORCA TERMINATED NORMALLY****
TOTAL RUN TIME: 1 days 15 hours 3 minutes 55 seconds 294 msec
