
                                 *****************
                                 * O   R   C   A *
                                 *****************

           --- An Ab Initio, DFT and Semiempirical electronic structure package ---

                  #######################################################
                  #                        -***-                        #
                  #          Department of theory and spectroscopy      #
                  #               Directorship: Frank Neese             #
                  #        Max Planck Institute fuer Kohlenforschung    #
                  #                Kaiser Wilhelm Platz 1               #
                  #                 D-45470 Muelheim/Ruhr               #
                  #                      Germany                        #
                  #                                                     #
                  #                  All rights reserved                #
                  #                        -***-                        #
                  #######################################################


                         Program Version 4.1.0  - RELEASE  -


 With contributions from (in alphabetic order):
   Daniel Aravena         : Magnetic Properties
   Michael Atanasov       : Ab Initio Ligand Field Theory
   Alexander A. Auer      : GIAO ZORA
   Ute Becker             : Parallelization
   Giovanni Bistoni       : ED, Open-shell LED
   Martin Brehm           : Molecular dynamics
   Dmytro Bykov           : SCF Hessian
   Vijay G. Chilkuri      : MRCI spin determinant printing
   Dipayan Datta          : RHF DLPNO-CCSD density
   Achintya Kumar Dutta   : EOM-CC, STEOM-CC
   Dmitry Ganyushin       : Spin-Orbit,Spin-Spin,Magnetic field MRCI
   Miquel Garcia          : C-PCM Hessian
   Yang Guo               : DLPNO-NEVPT2, CIM, IAO-localization
   Andreas Hansen         : Spin unrestricted coupled pair/coupled cluster methods
   Benjamin Helmich-Paris : CASSCF linear response (MC-RPA)
   Lee Huntington         : MR-EOM, pCC
   Robert Izsak           : Overlap fitted RIJCOSX, COSX-SCS-MP3, EOM
   Christian Kollmar      : KDIIS, OOCD, Brueckner-CCSD(T), CCSD density
   Simone Kossmann        : Meta GGA functionals, TD-DFT gradient, OOMP2, MP2 Hessian
   Martin Krupicka        : AUTO-CI
   Lucas Lang             : DCDCAS
   Dagmar Lenk            : GEPOL surface, SMD
   Dimitrios Liakos       : Extrapolation schemes; parallel MDCI
   Dimitrios Manganas     : ROCIS; embedding schemes
   Dimitrios Pantazis     : SARC Basis sets
   Taras Petrenko         : DFT Hessian,TD-DFT gradient, ASA, ECA, R-Raman, ABS, FL, XAS/XES, NRVS
   Peter Pinski           : DLPNO-MP2, DLPNO-MP2 Gradient
   Christoph Reimann      : Effective Core Potentials
   Marius Retegan         : Local ZFS, SOC
   Christoph Riplinger    : Optimizer, TS searches, QM/MM, DLPNO-CCSD(T), (RO)-DLPNO pert. Triples
   Tobias Risthaus        : Range-separated hybrids, TD-DFT gradient, RPA, STAB
   Michael Roemelt        : Restricted open shell CIS
   Masaaki Saitow         : Open-shell DLPNO
   Barbara Sandhoefer     : DKH picture change effects
   Avijit Sen             : IP-ROCIS
   Kantharuban Sivalingam : CASSCF convergence, NEVPT2, FIC-MRCI
   Bernardo de Souza      : ESD, SOC TD-DFT
   Georgi Stoychev        : AutoAux, RI-MP2 NMR
   Willem Van den Heuvel  : Paramagnetic NMR
   Boris Wezisla          : Elementary symmetry handling
   Frank Wennmohs         : Technical directorship


 We gratefully acknowledge several colleagues who have allowed us to
 interface, adapt or use parts of their codes:
   Stefan Grimme, W. Hujo, H. Kruse,             : VdW corrections, initial TS optimization,
                  C. Bannwarth                     DFT functionals, gCP, sTDA/sTD-DF
   Ed Valeev                                     : LibInt (2-el integral package), F12 methods
   Garnet Chan, S. Sharma, J. Yang, R. Olivares  : DMRG
   Ulf Ekstrom                                   : XCFun DFT Library
   Mihaly Kallay                                 : mrcc  (arbitrary order and MRCC methods)
   Andreas Klamt, Michael Diedenhofen            : otool_cosmo (COSMO solvation model)
   Jiri Pittner, Ondrej Demel                    : Mk-CCSD
   Frank Weinhold                                : gennbo (NPA and NBO analysis)
   Christopher J. Cramer and Donald G. Truhlar   : smd solvation model
   Lars Goerigk                                  : TD-DFT with DH, B97 family of functionals
   V. Asgeirsson, H. Jonsson                     : NEB implementation
   FAccTs GmbH                                   : IRC, NEB, NEB-TS, Multilevel


 Your calculation uses the libint2 library for the computation of 2-el integrals
 For citations please refer to: http://libint.valeyev.net

 This ORCA versions uses:
   CBLAS   interface :  Fast vector & matrix operations
   LAPACKE interface :  Fast linear algebra routines
   SCALAPACK package :  Parallel linear algebra routines




***************************************
The coordinates will be read from file: 2-NO2-C6H3-N2-source.xyz
***************************************


Your calculation utilizes a Nudged-Elastic-Band implementation
 by V.Asgeirsson, C. Riplinger & H. Jonsson
Please cite in your paper:
 V. Asgeirsson et al., in prep. (2019)
   

----- Orbital basis set information -----
Your calculation utilizes the basis: aug-cc-pVDZ 
    H, B-Ne : Obtained from the ccRepo (grant-hill.group.shef.ac.uk/ccrepo) Feb. 2017
              R. A. Kendall, T. H. Dunning, Jr., R. J. Harrison, J. Chem. Phys. 96, 6796 (1992)
         He : Obtained from the ccRepo (grant-hill.group.shef.ac.uk/ccrepo) Feb. 2017
              D. E. Woon, T. H. Dunning, Jr., J. Chem. Phys. 100, 2975 (1994)
  Li-Be, Na : Obtained from the ccRepo (grant-hill.group.shef.ac.uk/ccrepo) Feb. 2017
              B. P. Prascher, D. E. Woon, K. A. Peterson, T. H. Dunning, Jr., A. K. Wilson, Theor. Chem. Acc. 128, 69 (2011)
         Mg : Obtained from the Peterson Research Group Website (tyr0.chem.wsu.edu/~kipeters) Feb. 2017
              B. P. Prascher, D. E. Woon, K. A. Peterson, T. H. Dunning, Jr., A. K. Wilson, Theor. Chem. Acc. 128, 69 (2011)
      Al-Ar : Obtained from the ccRepo (grant-hill.group.shef.ac.uk/ccrepo) Feb. 2017
              D. E. Woon, T. H. Dunning, Jr., J. Chem. Phys. 98, 1358 (1993)
      Sc-Zn : Obtained from the ccRepo (grant-hill.group.shef.ac.uk/ccrepo) Feb. 2017
              N. B. Balabanov, K. A. Peterson, J. Chem. Phys. 123, 064107 (2005)
              N. B. Balabanov, K. A. Peterson, J. Chem. Phys. 125, 074110 (2006)
      Ga-Kr : Obtained from the ccRepo (grant-hill.group.shef.ac.uk/ccrepo) Feb. 2017
              A. K. Wilson, D. E. Woon, K. A. Peterson, T. H. Dunning, Jr., J. Chem. Phys. 110, 7667 (1999)

================================================================================
                                        WARNINGS
                       Please study these warnings very carefully!
================================================================================


WARNING: Geometry Optimization
  ===> : Switching off AutoStart
         For restart on a previous wavefunction, please use MOREAD

INFO   : the flag for use of LIBINT has been found!

================================================================================
                                       INPUT FILE
================================================================================
NAME = 2-NO2-C6H3-N2-NEB-TS.orc
|  1> ! B3LYP/G aug-cc-pVDZ TightSCF Grid7 NEB-TS
|  2> %scf MaxIter 1000 end
|  3> %geom MaxIter 1000 TolE 1e-8 TolRMSG 5e-7 TolMaxG 1e-6 Convergence tight end
|  4> %neb
|  5>   Nimages 12
|  6>   neb_end_xyzfile "2-NO2-C6H3-N2-final.xyz"
|  7> end
|  8> * xyzfile 0 1 2-NO2-C6H3-N2-source.xyz
|  9> %pal nprocs 42 end
| 10> 
| 11>                          ****END OF INPUT****
================================================================================

Running a Single Point calculation on the reactant structure before starting the actual NEB.

---------------------------------
CARTESIAN COORDINATES (ANGSTROEM)
---------------------------------
  C     -1.878915    0.130783   -1.067556
  C     -0.449549    0.075237   -1.038685
  C      0.058188    0.892135   -0.029778
  C     -0.659319    1.704895    0.894463
  C     -2.036046    1.694575    0.803802
  C     -2.643580    0.893883   -0.189474
  H     -2.406996   -0.460883   -1.820952
  N      1.468422    0.843578    0.018223
  N      2.563557    0.677501   -0.092538
  H     -3.733676    0.888316   -0.256716
  H     -2.620231    2.300911    1.491600
  N     -0.004072    2.533208    1.909576
  O      1.230950    2.514217    1.926934
  O     -0.699842    3.190043    2.673491

----------------------------
CARTESIAN COORDINATES (A.U.)
----------------------------
  NO LB      ZA    FRAG     MASS         X           Y           Z
   0 C     6.0000    0    12.011   -3.550635    0.247144   -2.017388
   1 C     6.0000    0    12.011   -0.849525    0.142177   -1.962831
   2 C     6.0000    0    12.011    0.109959    1.685891   -0.056273
   3 C     6.0000    0    12.011   -1.245932    3.221785    1.690291
   4 C     6.0000    0    12.011   -3.847570    3.202283    1.518966
   5 C     6.0000    0    12.011   -4.995641    1.689195   -0.358054
   6 H     1.0000    0     1.008   -4.548564   -0.870943   -3.441100
   7 N     7.0000    0    14.007    2.774915    1.594132    0.034436
   8 N     7.0000    0    14.007    4.844420    1.280292   -0.174872
   9 H     1.0000    0     1.008   -7.055626    1.678673   -0.485123
  10 H     1.0000    0     1.008   -4.951519    4.348092    2.818716
  11 N     7.0000    0    14.007   -0.007694    4.787069    3.608576
  12 O     8.0000    0    15.999    2.326159    4.751182    3.641378
  13 O     8.0000    0    15.999   -1.322510    6.028307    5.052165

--------------------------------
INTERNAL COORDINATES (ANGSTROEM)
--------------------------------
 C      0   0   0     0.000000000000     0.00000000     0.00000000
 C      1   0   0     1.430735820077     0.00000000     0.00000000
 C      2   1   0     1.393919985790   110.83974719     0.00000000
 C      3   2   1     1.424646590975   128.34882518     0.06106431
 C      4   3   2     1.379748262423   117.10611765     0.33647886
 C      1   2   3     1.392142706787   123.86922367   359.42393088
 H      1   2   3     1.093866984149   118.37250125   179.54226532
 N      3   2   1     1.411885582938   111.60942736   179.66222121
 N      8   3   2     1.113180312998   169.86199927   359.14907108
 H      6   1   2     1.092182765213   120.43734184   180.50798774
 H      5   4   3     1.087189350512   119.36800475   179.95795858
 N      4   3   2     1.464890349494   123.15235808   180.51019423
 O     12   4   3     1.235289934283   116.63137046     0.84842853
 O     12   4   3     1.224375114479   118.78399551   180.79564192

---------------------------
INTERNAL COORDINATES (A.U.)
---------------------------
 C      0   0   0     0.000000000000     0.00000000     0.00000000
 C      1   0   0     2.703698869937     0.00000000     0.00000000
 C      2   1   0     2.634127025743   110.83974719     0.00000000
 C      3   2   1     2.692191894568   128.34882518     0.06106431
 C      4   3   2     2.607346349733   117.10611765     0.33647886
 C      1   2   3     2.630768455162   123.86922367   359.42393088
 H      1   2   3     2.067109026980   118.37250125   179.54226532
 N      3   2   1     2.668077084184   111.60942736   179.66222121
 N      8   3   2     2.103605929239   169.86199927   359.14907108
 H      6   1   2     2.063926314441   120.43734184   180.50798774
 H      5   4   3     2.054490128184   119.36800475   179.95795858
 N      4   3   2     2.768241576768   123.15235808   180.51019423
 O     12   4   3     2.334359671784   116.63137046     0.84842853
 O     12   4   3     2.313733651554   118.78399551   180.79564192

---------------------
BASIS SET INFORMATION
---------------------
There are 4 groups of distinct atoms

 Group   1 Type C   : 18s5p2d contracted to 4s3p2d pattern {8811/311/11}
 Group   2 Type H   : 5s2p contracted to 3s2p pattern {311/11}
 Group   3 Type N   : 18s5p2d contracted to 4s3p2d pattern {8811/311/11}
 Group   4 Type O   : 18s5p2d contracted to 4s3p2d pattern {8811/311/11}

Atom   0C    basis set group =>   1
Atom   1C    basis set group =>   1
Atom   2C    basis set group =>   1
Atom   3C    basis set group =>   1
Atom   4C    basis set group =>   1
Atom   5C    basis set group =>   1
Atom   6H    basis set group =>   2
Atom   7N    basis set group =>   3
Atom   8N    basis set group =>   3
Atom   9H    basis set group =>   2
Atom  10H    basis set group =>   2
Atom  11N    basis set group =>   3
Atom  12O    basis set group =>   4
Atom  13O    basis set group =>   4


           ************************************************************
           *        Program running with 42 parallel MPI-processes    *
           *            working without local directories             *
           ************************************************************
------------------------------------------------------------------------------
                           ORCA GTO INTEGRAL CALCULATION
------------------------------------------------------------------------------

                         BASIS SET STATISTICS AND STARTUP INFO

 # of primitive gaussian shells          ...  296
 # of primitive gaussian functions       ...  506
 # of contracted shells                  ...  114
 # of contracted basis functions         ...  280
 Highest angular momentum                ...    2
 Maximum contraction depth               ...    8
 Integral package used                   ... LIBINT
 Integral threshhold            Thresh   ...  2.500e-11
 Primitive cut-off              TCut     ...  2.500e-12


------------------------------ INTEGRAL EVALUATION ----------------------------


 * One electron integrals 
 Pre-screening matrix                    ... done
 Shell pair data                         ... done (   0.004 sec)



           ************************************************************
           *        Program running with 42 parallel MPI-processes    *
           *            working without local directories             *
           ************************************************************
-------------------------------------------------------------------------------
                                 ORCA SCF
-------------------------------------------------------------------------------

------------
SCF SETTINGS
------------
Hamiltonian:
 Density Functional     Method          .... DFT(GTOs)
 Exchange Functional    Exchange        .... B88
   X-Alpha parameter    XAlpha          ....  0.666667
   Becke's b parameter  XBeta           ....  0.004200
 Correlation Functional Correlation     .... LYP
 LDA part of GGA corr.  LDAOpt          .... VWN-3
 Gradients option       PostSCFGGA      .... off
 Hybrid DFT is turned on
   Fraction HF Exchange ScalHFX         ....  0.200000
   Scaling of DF-GGA-X  ScalDFX         ....  0.720000
   Scaling of DF-GGA-C  ScalDFC         ....  0.810000
   Scaling of DF-LDA-C  ScalLDAC        ....  1.000000
   Perturbative correction              ....  0.000000
   Density functional embedding theory  .... OFF
   NL short-range parameter             ....  4.800000


General Settings:
 Integral files         IntName         .... 2-NO2-C6H3-N2-NEB-TS
 Hartree-Fock type      HFTyp           .... RHF
 Total Charge           Charge          ....    0
 Multiplicity           Mult            ....    1
 Number of Electrons    NEL             ....   76
 Basis Dimension        Dim             ....  280
 Nuclear Repulsion      ENuc            ....    550.3950391281 Eh

Convergence Acceleration:
 DIIS                   CNVDIIS         .... on
   Start iteration      DIISMaxIt       ....    12
   Startup error        DIISStart       ....  0.200000
   # of expansion vecs  DIISMaxEq       ....     5
   Bias factor          DIISBfac        ....   1.050
   Max. coefficient     DIISMaxC        ....  10.000
 Newton-Raphson         CNVNR           .... off
 SOSCF                  CNVSOSCF        .... on
   Start iteration      SOSCFMaxIt      ....   150
   Startup grad/error   SOSCFStart      ....  0.003300
 Level Shifting         CNVShift        .... on
   Level shift para.    LevelShift      ....    0.2500
   Turn off err/grad.   ShiftErr        ....    0.0010
 Zerner damping         CNVZerner       .... off
 Static damping         CNVDamp         .... on
   Fraction old density DampFac         ....    0.7000
   Max. Damping (<1)    DampMax         ....    0.9800
   Min. Damping (>=0)   DampMin         ....    0.0000
   Turn off err/grad.   DampErr         ....    0.1000
 Fernandez-Rico         CNVRico         .... off

SCF Procedure:
 Maximum # iterations   MaxIter         ....  1000
 SCF integral mode      SCFMode         .... Direct
   Integral package                     .... LIBINT
 Reset frequency        DirectResetFreq ....    20
 Integral Threshold     Thresh          ....  2.500e-11 Eh
 Primitive CutOff       TCut            ....  2.500e-12 Eh

Convergence Tolerance:
 Convergence Check Mode ConvCheckMode   .... Total+1el-Energy
 Convergence forced     ConvForced      .... 0
 Energy Change          TolE            ....  1.000e-08 Eh
 1-El. energy change                    ....  1.000e-05 Eh
 Orbital Gradient       TolG            ....  1.000e-05
 Orbital Rotation angle TolX            ....  1.000e-05
 DIIS Error             TolErr          ....  5.000e-07


Diagonalization of the overlap matrix:
Smallest eigenvalue                        ... 4.095e-06
Time for diagonalization                   ...    0.020 sec
Threshold for overlap eigenvalues          ... 1.000e-08
Number of eigenvalues below threshold      ... 0
Time for construction of square roots      ...    0.020 sec
Total time needed                          ...    0.040 sec

-------------------
DFT GRID GENERATION
-------------------

General Integration Accuracy     IntAcc      ...  5.670
Radial Grid Type                 RadialGrid  ... Gauss-Chebyshev
Angular Grid (max. acc.)         AngularGrid ... Lebedev-770
Angular grid pruning method      GridPruning ... 3 (G Style)
Weight generation scheme         WeightScheme... Becke
Basis function cutoff            BFCut       ...    1.0000e-11
Integration weight cutoff        WCut        ...    1.0000e-14
Grids for H and He will be reduced by one unit

# of grid points (after initial pruning)     ... 328834 (   0.0 sec)
# of grid points (after weights+screening)   ... 303010 (   0.3 sec)
nearest neighbour list constructed           ...    0.0 sec
Grid point re-assignment to atoms done       ...    0.1 sec
Grid point division into batches done        ...    7.0 sec
Reduced shell lists constructed in    7.2 sec

Total number of grid points                  ...   303010
Total number of batches                      ...     4742
Average number of points per batch           ...       63
Average number of grid points per atom       ...    21644
Average number of shells per batch           ...    88.37 (77.52%)
Average number of basis functions per batch  ...   215.96 (77.13%)
Average number of large shells per batch     ...    73.94 (83.67%)
Average number of large basis fcns per batch ...   180.34 (83.51%)
Maximum spatial batch extension              ...   3.77, 12.20, 10.75 au
Average spatial batch extension              ...   0.03,  0.03,  0.03 au

Time for grid setup =    9.155 sec

------------------------------
INITIAL GUESS: MODEL POTENTIAL
------------------------------
Loading Hartree-Fock densities                     ... done
Calculating cut-offs                               ... done
Setting up the integral package                    ... done
Initializing the effective Hamiltonian             ... done
Starting the Coulomb interaction                   ... done (   0.0 sec)
Reading the grid                                   ... done
Mapping shells                                     ... done
Starting the XC term evaluation                    ... done (   0.4 sec)
  promolecular density results
     # of electrons  =     75.998531813
     EX              =    -67.750049397
     EC              =     -2.659563227
     EX+EC           =    -70.409612623
Transforming the Hamiltonian                       ... done (   0.0 sec)
Diagonalizing the Hamiltonian                      ... done (   0.0 sec)
Back transforming the eigenvectors                 ... done (   0.0 sec)
Now organizing SCF variables                       ... done
                      ------------------
                      INITIAL GUESS DONE (   9.7 sec)
                      ------------------
--------------
SCF ITERATIONS
--------------
ITER       Energy         Delta-E        Max-DP      RMS-DP      [F,P]     Damp
               ***  Starting incremental Fock matrix formation  ***
  0   -544.6572935958   0.000000000000 0.68755566  0.01384705  0.2492100 0.7000
  1   -544.8204299174  -0.163136321552 0.58258501  0.01056998  0.0726904 0.7000
                               ***Turning on DIIS***
  2   -544.8660644611  -0.045634543677 1.41122465  0.02302487  0.0262601 0.0000
  3   -544.9522232930  -0.086158831931 0.13444748  0.00330916  0.0394425 0.0000
  4   -544.9723237877  -0.020100494744 0.11559373  0.00202762  0.0160706 0.0000
  5   -544.9745695460  -0.002245758235 0.02717708  0.00055684  0.0078103 0.0000
                      *** Initiating the SOSCF procedure ***
                           *** Shutting down DIIS ***
                      *** Re-Reading the Fockian *** 
                      *** Removing any level shift *** 
ITER      Energy       Delta-E        Grad      Rot      Max-DP    RMS-DP
  6   -544.97484201  -0.0002724670  0.001661  0.001661  0.013482  0.000260
               *** Restarting incremental Fock matrix formation ***
  7   -544.97490117  -0.0000591616  0.001141  0.009918  0.023435  0.000327
  8   -544.97489582   0.0000053514  0.001729  0.007737  0.016373  0.000233
  9   -544.97495021  -0.0000543834  0.000543  0.002480  0.012782  0.000195
 10   -544.97494432   0.0000058818  0.000637  0.001051  0.004517  0.000063
 11   -544.97495623  -0.0000119064  0.000139  0.001455  0.013363  0.000157
 12   -544.97495482   0.0000014132  0.000258  0.000464  0.006690  0.000085
 13   -544.97495690  -0.0000020804  0.000056  0.000489  0.015356  0.000184
 14   -544.97495673   0.0000001726  0.000098  0.000186  0.007354  0.000078
 15   -544.97495699  -0.0000002624  0.000015  0.000102  0.007938  0.000122
 16   -544.97495698   0.0000000122  0.000029  0.000063  0.004541  0.000058
 17   -544.97495700  -0.0000000197  0.000003  0.000038  0.005059  0.000079
 18   -544.97495699   0.0000000008  0.000003  0.000011  0.002829  0.000040
                  ***Gradient check signals convergence***
              ***Rediagonalizing the Fockian in SOSCF/NRSCF***

               *****************************************************
               *                     SUCCESS                       *
               *           SCF CONVERGED AFTER  19 CYCLES          *
               *****************************************************


----------------
TOTAL SCF ENERGY
----------------

Total Energy       :         -544.97495699 Eh          -14829.52250 eV

Components:
Nuclear Repulsion  :          550.39503913 Eh           14977.01043 eV
Electronic Energy  :        -1095.36999612 Eh          -29806.53293 eV
One Electron Energy:        -1829.70356936 Eh          -49788.76533 eV
Two Electron Energy:          734.33357323 Eh           19982.23240 eV

Virial components:
Potential Energy   :        -1086.66117107 Eh          -29569.55375 eV
Kinetic Energy     :          541.68621407 Eh           14740.03125 eV
Virial Ratio       :            2.00607131


DFT components:
N(Alpha)           :       38.000000079381 electrons
N(Beta)            :       38.000000079381 electrons
N(Total)           :       76.000000158762 electrons
E(X)               :      -54.281895125796 Eh       
E(C)               :       -3.405402169616 Eh       
E(XC)              :      -57.687297295411 Eh       
DFET-embed. en.    :        0.000000000000 Eh       

---------------
SCF CONVERGENCE
---------------

  Last Energy change         ...    2.5065e-09  Tolerance :   1.0000e-08
  Last MAX-Density change    ...    7.8120e-03  Tolerance :   1.0000e-07
  Last RMS-Density change    ...    8.0842e-05  Tolerance :   5.0000e-09
  Last Orbital Gradient      ...    1.4794e-06  Tolerance :   1.0000e-05
  Last Orbital Rotation      ...    1.8983e-05  Tolerance :   1.0000e-05

             **** THE GBW FILE WAS UPDATED (2-NO2-C6H3-N2-NEB-TS.gbw) ****
             **** DENSITY FILE WAS UPDATED (2-NO2-C6H3-N2-NEB-TS.scfp.tmp) ****
             **** ENERGY FILE WAS UPDATED (2-NO2-C6H3-N2-NEB-TS.en.tmp) ****
----------------
ORBITAL ENERGIES
----------------

  NO   OCC          E(Eh)            E(eV) 
   0   2.0000     -19.212433      -522.7969 
   1   2.0000     -19.212383      -522.7955 
   2   2.0000     -14.601076      -397.3155 
   3   2.0000     -14.552576      -395.9957 
   4   2.0000     -14.508765      -394.8036 
   5   2.0000     -10.297374      -280.2058 
   6   2.0000     -10.289024      -279.9786 
   7   2.0000     -10.242368      -278.7090 
   8   2.0000     -10.235310      -278.5169 
   9   2.0000     -10.222584      -278.1706 
  10   2.0000     -10.187474      -277.2153 
  11   2.0000      -1.262560       -34.3560 
  12   2.0000      -1.204582       -32.7783 
  13   2.0000      -1.089892       -29.6575 
  14   2.0000      -0.936240       -25.4764 
  15   2.0000      -0.860759       -23.4225 
  16   2.0000      -0.826546       -22.4915 
  17   2.0000      -0.739857       -20.1325 
  18   2.0000      -0.703060       -19.1312 
  19   2.0000      -0.637455       -17.3460 
  20   2.0000      -0.608060       -16.5461 
  21   2.0000      -0.571643       -15.5552 
  22   2.0000      -0.570290       -15.5184 
  23   2.0000      -0.552690       -15.0395 
  24   2.0000      -0.544908       -14.8277 
  25   2.0000      -0.543591       -14.7919 
  26   2.0000      -0.531410       -14.4604 
  27   2.0000      -0.495114       -13.4727 
  28   2.0000      -0.471726       -12.8363 
  29   2.0000      -0.430854       -11.7241 
  30   2.0000      -0.409227       -11.1356 
  31   2.0000      -0.391558       -10.6548 
  32   2.0000      -0.347555        -9.4574 
  33   2.0000      -0.346193        -9.4204 
  34   2.0000      -0.329613        -8.9692 
  35   2.0000      -0.308987        -8.4080 
  36   2.0000      -0.290656        -7.9092 
  37   2.0000      -0.219422        -5.9708 
  38   0.0000      -0.141983        -3.8635 
  39   0.0000      -0.105414        -2.8685 
  40   0.0000      -0.100563        -2.7364 
  41   0.0000      -0.026993        -0.7345 
  42   0.0000      -0.016325        -0.4442 
  43   0.0000      -0.015740        -0.4283 
  44   0.0000       0.005440         0.1480 
  45   0.0000       0.011701         0.3184 
  46   0.0000       0.029057         0.7907 
  47   0.0000       0.034267         0.9324 
  48   0.0000       0.039128         1.0647 
  49   0.0000       0.048817         1.3284 
  50   0.0000       0.062046         1.6884 
  51   0.0000       0.069319         1.8863 
  52   0.0000       0.075766         2.0617 
  53   0.0000       0.076288         2.0759 
  54   0.0000       0.083120         2.2618 
  55   0.0000       0.084723         2.3054 
  56   0.0000       0.089113         2.4249 
  57   0.0000       0.095808         2.6071 
  58   0.0000       0.104876         2.8538 
  59   0.0000       0.109399         2.9769 
  60   0.0000       0.111065         3.0222 
  61   0.0000       0.115312         3.1378 
  62   0.0000       0.120507         3.2792 
  63   0.0000       0.121330         3.3016 
  64   0.0000       0.123291         3.3549 
  65   0.0000       0.137174         3.7327 
  66   0.0000       0.137860         3.7513 
  67   0.0000       0.151532         4.1234 
  68   0.0000       0.155152         4.2219 
  69   0.0000       0.164774         4.4837 
  70   0.0000       0.170320         4.6346 
  71   0.0000       0.178496         4.8571 
  72   0.0000       0.183706         4.9989 
  73   0.0000       0.185539         5.0488 
  74   0.0000       0.188678         5.1342 
  75   0.0000       0.198362         5.3977 
  76   0.0000       0.199785         5.4364 
  77   0.0000       0.211217         5.7475 
  78   0.0000       0.212486         5.7820 
  79   0.0000       0.213775         5.8171 
  80   0.0000       0.226983         6.1765 
  81   0.0000       0.230564         6.2740 
  82   0.0000       0.237675         6.4675 
  83   0.0000       0.252321         6.8660 
  84   0.0000       0.257103         6.9961 
  85   0.0000       0.260328         7.0839 
  86   0.0000       0.264624         7.2008 
  87   0.0000       0.266632         7.2554 
  88   0.0000       0.271180         7.3792 
  89   0.0000       0.280223         7.6253 
  90   0.0000       0.285743         7.7755 
  91   0.0000       0.289568         7.8795 
  92   0.0000       0.292963         7.9719 
  93   0.0000       0.296049         8.0559 
  94   0.0000       0.304226         8.2784 
  95   0.0000       0.309685         8.4270 
  96   0.0000       0.319775         8.7015 
  97   0.0000       0.328327         8.9342 
  98   0.0000       0.334505         9.1023 
  99   0.0000       0.347343         9.4517 
 100   0.0000       0.358304         9.7500 
 101   0.0000       0.362774         9.8716 
 102   0.0000       0.376295        10.2395 
 103   0.0000       0.377927        10.2839 
 104   0.0000       0.381109        10.3705 
 105   0.0000       0.408892        11.1265 
 106   0.0000       0.414861        11.2889 
 107   0.0000       0.421628        11.4731 
 108   0.0000       0.432478        11.7683 
 109   0.0000       0.433916        11.8075 
 110   0.0000       0.455912        12.4060 
 111   0.0000       0.469306        12.7705 
 112   0.0000       0.491054        13.3623 
 113   0.0000       0.492645        13.4056 
 114   0.0000       0.500067        13.6075 
 115   0.0000       0.507347        13.8056 
 116   0.0000       0.510607        13.8943 
 117   0.0000       0.514322        13.9954 
 118   0.0000       0.530378        14.4323 
 119   0.0000       0.532710        14.4958 
 120   0.0000       0.538098        14.6424 
 121   0.0000       0.553931        15.0732 
 122   0.0000       0.559426        15.2228 
 123   0.0000       0.567521        15.4430 
 124   0.0000       0.574991        15.6463 
 125   0.0000       0.587218        15.9790 
 126   0.0000       0.589542        16.0422 
 127   0.0000       0.606925        16.5153 
 128   0.0000       0.609766        16.5926 
 129   0.0000       0.622047        16.9268 
 130   0.0000       0.634788        17.2735 
 131   0.0000       0.645450        17.5636 
 132   0.0000       0.650774        17.7085 
 133   0.0000       0.658586        17.9210 
 134   0.0000       0.678847        18.4724 
 135   0.0000       0.683363        18.5953 
 136   0.0000       0.692513        18.8442 
 137   0.0000       0.692642        18.8477 
 138   0.0000       0.703402        19.1405 
 139   0.0000       0.711966        19.3736 
 140   0.0000       0.713920        19.4268 
 141   0.0000       0.722992        19.6736 
 142   0.0000       0.728902        19.8344 
 143   0.0000       0.737611        20.0714 
 144   0.0000       0.745596        20.2887 
 145   0.0000       0.758418        20.6376 
 146   0.0000       0.765119        20.8199 
 147   0.0000       0.773639        21.0518 
 148   0.0000       0.783126        21.3100 
 149   0.0000       0.788717        21.4621 
 150   0.0000       0.814551        22.1651 
 151   0.0000       0.824399        22.4330 
 152   0.0000       0.831735        22.6327 
 153   0.0000       0.839269        22.8377 
 154   0.0000       0.856013        23.2933 
 155   0.0000       0.875280        23.8176 
 156   0.0000       0.879285        23.9266 
 157   0.0000       0.888082        24.1659 
 158   0.0000       0.902285        24.5524 
 159   0.0000       0.906931        24.6788 
 160   0.0000       0.951701        25.8971 
 161   0.0000       0.970068        26.3969 
 162   0.0000       0.973784        26.4980 
 163   0.0000       1.004767        27.3411 
 164   0.0000       1.010508        27.4973 
 165   0.0000       1.020478        27.7686 
 166   0.0000       1.034447        28.1487 
 167   0.0000       1.038186        28.2505 
 168   0.0000       1.060591        28.8601 
 169   0.0000       1.072017        29.1711 
 170   0.0000       1.104211        30.0471 
 171   0.0000       1.115584        30.3566 
 172   0.0000       1.122076        30.5332 
 173   0.0000       1.149191        31.2711 
 174   0.0000       1.157902        31.5081 
 175   0.0000       1.173670        31.9372 
 176   0.0000       1.199229        32.6327 
 177   0.0000       1.208012        32.8717 
 178   0.0000       1.211057        32.9545 
 179   0.0000       1.226277        33.3687 
 180   0.0000       1.250550        34.0292 
 181   0.0000       1.263274        34.3754 
 182   0.0000       1.265830        34.4450 
 183   0.0000       1.271171        34.5903 
 184   0.0000       1.295483        35.2519 
 185   0.0000       1.313721        35.7482 
 186   0.0000       1.319899        35.9163 
 187   0.0000       1.341032        36.4913 
 188   0.0000       1.343703        36.5640 
 189   0.0000       1.365159        37.1479 
 190   0.0000       1.385746        37.7081 
 191   0.0000       1.390463        37.8364 
 192   0.0000       1.392136        37.8819 
 193   0.0000       1.404924        38.2299 
 194   0.0000       1.406247        38.2659 
 195   0.0000       1.417660        38.5765 
 196   0.0000       1.430338        38.9215 
 197   0.0000       1.443421        39.2775 
 198   0.0000       1.479617        40.2624 
 199   0.0000       1.486395        40.4469 
 200   0.0000       1.530854        41.6567 
 201   0.0000       1.544780        42.0356 
 202   0.0000       1.563789        42.5529 
 203   0.0000       1.580810        43.0160 
 204   0.0000       1.584445        43.1149 
 205   0.0000       1.593387        43.3583 
 206   0.0000       1.607612        43.7453 
 207   0.0000       1.616463        43.9862 
 208   0.0000       1.632023        44.4096 
 209   0.0000       1.653956        45.0064 
 210   0.0000       1.664697        45.2987 
 211   0.0000       1.688223        45.9389 
 212   0.0000       1.739033        47.3215 
 213   0.0000       1.740267        47.3551 
 214   0.0000       1.744789        47.4781 
 215   0.0000       1.756146        47.7872 
 216   0.0000       1.798513        48.9400 
 217   0.0000       1.811701        49.2989 
 218   0.0000       1.844656        50.1957 
 219   0.0000       1.882184        51.2168 
 220   0.0000       1.884066        51.2680 
 221   0.0000       1.889852        51.4255 
 222   0.0000       1.903673        51.8016 
 223   0.0000       1.915675        52.1282 
 224   0.0000       1.946562        52.9687 
 225   0.0000       1.959907        53.3318 
 226   0.0000       1.988447        54.1084 
 227   0.0000       2.000386        54.4333 
 228   0.0000       2.014072        54.8057 
 229   0.0000       2.046473        55.6874 
 230   0.0000       2.047328        55.7106 
 231   0.0000       2.064131        56.1678 
 232   0.0000       2.068649        56.2908 
 233   0.0000       2.098710        57.1088 
 234   0.0000       2.114003        57.5249 
 235   0.0000       2.151213        58.5375 
 236   0.0000       2.184747        59.4500 
 237   0.0000       2.186469        59.4969 
 238   0.0000       2.234516        60.8043 
 239   0.0000       2.251413        61.2641 
 240   0.0000       2.267820        61.7105 
 241   0.0000       2.282536        62.1110 
 242   0.0000       2.310334        62.8674 
 243   0.0000       2.313723        62.9596 
 244   0.0000       2.338440        63.6322 
 245   0.0000       2.372065        64.5472 
 246   0.0000       2.388250        64.9876 
 247   0.0000       2.447626        66.6033 
 248   0.0000       2.464773        67.0699 
 249   0.0000       2.472657        67.2844 
 250   0.0000       2.523978        68.6809 
 251   0.0000       2.565348        69.8067 
 252   0.0000       2.612611        71.0928 
 253   0.0000       2.670503        72.6681 
 254   0.0000       2.733385        74.3792 
 255   0.0000       2.756738        75.0146 
 256   0.0000       2.807121        76.3856 
 257   0.0000       2.851504        77.5934 
 258   0.0000       2.859385        77.8078 
 259   0.0000       2.883306        78.4587 
 260   0.0000       2.933208        79.8166 
 261   0.0000       3.077989        83.7563 
 262   0.0000       3.094482        84.2051 
 263   0.0000       3.153776        85.8186 
 264   0.0000       3.220190        87.6258 
 265   0.0000       3.265570        88.8607 
 266   0.0000       3.277300        89.1799 
 267   0.0000       3.282086        89.3101 
 268   0.0000       3.344351        91.0044 
 269   0.0000       3.368077        91.6500 
 270   0.0000       3.370429        91.7140 
 271   0.0000       3.415648        92.9445 
 272   0.0000       3.429257        93.3148 
 273   0.0000       3.533242        96.1444 
 274   0.0000       3.572302        97.2073 
 275   0.0000       3.580814        97.4389 
 276   0.0000       3.765752       102.4713 
 277   0.0000       3.778116       102.8078 
 278   0.0000       3.812509       103.7437 
 279   0.0000       4.154473       113.0490 

                    ********************************
                    * MULLIKEN POPULATION ANALYSIS *
                    ********************************

-----------------------
MULLIKEN ATOMIC CHARGES
-----------------------
   0 C :    0.693264
   1 C :   -1.453767
   2 C :    1.477785
   3 C :    0.870685
   4 C :    1.042705
   5 C :    0.565887
   6 H :   -0.681794
   7 N :    0.482588
   8 N :   -0.832091
   9 H :   -0.718694
  10 H :   -0.779467
  11 N :    0.708003
  12 O :   -0.699095
  13 O :   -0.676009
Sum of atomic charges:   -0.0000000

--------------------------------
MULLIKEN REDUCED ORBITAL CHARGES
--------------------------------
  0 C s       :     3.211319  s :     3.211319
      pz      :     0.783239  p :     2.094832
      px      :     0.489510
      py      :     0.822082
      dz2     :     0.018143  d :     0.000586
      dxz     :    -0.032740
      dyz     :    -0.009416
      dx2y2   :     0.049809
      dxy     :    -0.025209
  1 C s       :     4.145711  s :     4.145711
      pz      :     1.080386  p :     3.281220
      px      :     1.258826
      py      :     0.942008
      dz2     :     0.021509  d :     0.026837
      dxz     :    -0.023273
      dyz     :     0.013029
      dx2y2   :     0.026764
      dxy     :    -0.011193
  2 C s       :     3.132109  s :     3.132109
      pz      :     0.431133  p :     1.352191
      px      :     0.294065
      py      :     0.626993
      dz2     :     0.017718  d :     0.037914
      dxz     :     0.004734
      dyz     :     0.034287
      dx2y2   :    -0.014986
      dxy     :    -0.003839
  3 C s       :     3.788173  s :     3.788173
      pz      :     0.677764  p :     1.564148
      px      :     0.120488
      py      :     0.765897
      dz2     :    -0.041348  d :    -0.223006
      dxz     :    -0.051132
      dyz     :    -0.050919
      dx2y2   :    -0.061916
      dxy     :    -0.017691
  4 C s       :     3.042740  s :     3.042740
      pz      :     0.612290  p :     2.166646
      px      :     0.856354
      py      :     0.698003
      dz2     :    -0.037515  d :    -0.252091
      dxz     :    -0.056682
      dyz     :    -0.027732
      dx2y2   :    -0.093511
      dxy     :    -0.036652
  5 C s       :     3.234882  s :     3.234882
      pz      :     0.861815  p :     2.381738
      px      :     0.664743
      py      :     0.855180
      dz2     :    -0.014008  d :    -0.182506
      dxz     :    -0.066270
      dyz     :    -0.018570
      dx2y2   :    -0.040846
      dxy     :    -0.042811
  6 H s       :     1.708521  s :     1.708521
      pz      :     0.001140  p :    -0.026727
      px      :    -0.032669
      py      :     0.004802
  7 N s       :     3.524851  s :     3.524851
      pz      :     1.138855  p :     2.804238
      px      :     0.528338
      py      :     1.137044
      dz2     :     0.010981  d :     0.188323
      dxz     :     0.070814
      dyz     :     0.004377
      dx2y2   :     0.028284
      dxy     :     0.073866
  8 N s       :     4.589018  s :     4.589018
      pz      :     0.944776  p :     3.176758
      px      :     1.265777
      py      :     0.966205
      dz2     :     0.002892  d :     0.066314
      dxz     :     0.026545
      dyz     :     0.001280
      dx2y2   :     0.009004
      dxy     :     0.026594
  9 H s       :     1.745101  s :     1.745101
      pz      :    -0.015413  p :    -0.026407
      px      :    -0.003952
      py      :    -0.007042
 10 H s       :     1.779968  s :     1.779968
      pz      :     0.000309  p :    -0.000501
      px      :    -0.004190
      py      :     0.003381
 11 N s       :     3.348436  s :     3.348436
      pz      :     0.995663  p :     2.715680
      px      :     0.678022
      py      :     1.041995
      dz2     :     0.044128  d :     0.227881
      dxz     :     0.065685
      dyz     :     0.018489
      dx2y2   :     0.041758
      dxy     :     0.057821
 12 O s       :     4.271878  s :     4.271878
      pz      :     1.696681  p :     4.388077
      px      :     1.067948
      py      :     1.623449
      dz2     :     0.003852  d :     0.039140
      dxz     :     0.010550
      dyz     :     0.000599
      dx2y2   :     0.010970
      dxy     :     0.013169
 13 O s       :     4.285354  s :     4.285354
      pz      :     1.350315  p :     4.349466
      px      :     1.639615
      py      :     1.359536
      dz2     :     0.010838  d :     0.041189
      dxz     :     0.009356
      dyz     :     0.006606
      dx2y2   :     0.005823
      dxy     :     0.008566


                     *******************************
                     * LOEWDIN POPULATION ANALYSIS *
                     *******************************

----------------------
LOEWDIN ATOMIC CHARGES
----------------------
   0 C :   -0.054558
   1 C :    0.062137
   2 C :   -0.260314
   3 C :   -0.112080
   4 C :    0.068866
   5 C :    0.028273
   6 H :   -0.009405
   7 N :    0.007148
   8 N :    0.346655
   9 H :    0.011069
  10 H :    0.009557
  11 N :   -0.387636
  12 O :    0.132413
  13 O :    0.157875

-------------------------------
LOEWDIN REDUCED ORBITAL CHARGES
-------------------------------
  0 C s       :     2.643617  s :     2.643617
      pz      :     0.856517  p :     2.678264
      px      :     1.008075
      py      :     0.813672
      dz2     :     0.097909  d :     0.732677
      dxz     :     0.216149
      dyz     :     0.082839
      dx2y2   :     0.156754
      dxy     :     0.179026
  1 C s       :     2.783991  s :     2.783991
      pz      :     0.846407  p :     2.603387
      px      :     0.991210
      py      :     0.765769
      dz2     :     0.093887  d :     0.550485
      dxz     :     0.137103
      dyz     :     0.073413
      dx2y2   :     0.129408
      dxy     :     0.116673
  2 C s       :     2.591932  s :     2.591932
      pz      :     0.949018  p :     2.627935
      px      :     0.762263
      py      :     0.916653
      dz2     :     0.215441  d :     1.040447
      dxz     :     0.208537
      dyz     :     0.172728
      dx2y2   :     0.274479
      dxy     :     0.169263
  3 C s       :     2.571011  s :     2.571011
      pz      :     0.818424  p :     2.589290
      px      :     0.952875
      py      :     0.817991
      dz2     :     0.160559  d :     0.951779
      dxz     :     0.239989
      dyz     :     0.147043
      dx2y2   :     0.192380
      dxy     :     0.211806
  4 C s       :     2.612556  s :     2.612556
      pz      :     0.864390  p :     2.637415
      px      :     0.949392
      py      :     0.823633
      dz2     :     0.104315  d :     0.681162
      dxz     :     0.181354
      dyz     :     0.098244
      dx2y2   :     0.140405
      dxy     :     0.156844
  5 C s       :     2.626509  s :     2.626509
      pz      :     0.875065  p :     2.647186
      px      :     0.943975
      py      :     0.828147
      dz2     :     0.163770  d :     0.698032
      dxz     :     0.123851
      dyz     :     0.147782
      dx2y2   :     0.168529
      dxy     :     0.094100
  6 H s       :     0.745519  s :     0.745519
      pz      :     0.095863  p :     0.263885
      px      :     0.083785
      py      :     0.084237
  7 N s       :     2.931615  s :     2.931615
      pz      :     1.008704  p :     3.298542
      px      :     1.278696
      py      :     1.011141
      dz2     :     0.075417  d :     0.762695
      dxz     :     0.221099
      dyz     :     0.022360
      dx2y2   :     0.213105
      dxy     :     0.230715
  8 N s       :     3.237064  s :     3.237064
      pz      :     0.894650  p :     3.131890
      px      :     1.325483
      py      :     0.911757
      dz2     :     0.034526  d :     0.284391
      dxz     :     0.072552
      dyz     :     0.003349
      dx2y2   :     0.097717
      dxy     :     0.076248
  9 H s       :     0.736101  s :     0.736101
      pz      :     0.060409  p :     0.252829
      px      :     0.130113
      py      :     0.062307
 10 H s       :     0.718723  s :     0.718723
      pz      :     0.098343  p :     0.271720
      px      :     0.083117
      py      :     0.090260
 11 N s       :     2.798045  s :     2.798045
      pz      :     1.042158  p :     3.159299
      px      :     1.103248
      py      :     1.013894
      dz2     :     0.235787  d :     1.430292
      dxz     :     0.374316
      dyz     :     0.164931
      dx2y2   :     0.317094
      dxy     :     0.338164
 12 O s       :     3.380572  s :     3.380572
      pz      :     1.527726  p :     4.266884
      px      :     1.272447
      py      :     1.466711
      dz2     :     0.024843  d :     0.220130
      dxz     :     0.060020
      dyz     :     0.003829
      dx2y2   :     0.073442
      dxy     :     0.057996
 13 O s       :     3.382470  s :     3.382470
      pz      :     1.360898  p :     4.238179
      px      :     1.541164
      py      :     1.336117
      dz2     :     0.042757  d :     0.221476
      dxz     :     0.048990
      dyz     :     0.050701
      dx2y2   :     0.038254
      dxy     :     0.040775


                      *****************************
                      * MAYER POPULATION ANALYSIS *
                      *****************************

  NA   - Mulliken gross atomic population
  ZA   - Total nuclear charge
  QA   - Mulliken gross atomic charge
  VA   - Mayer's total valence
  BVA  - Mayer's bonded valence
  FA   - Mayer's free valence

  ATOM       NA         ZA         QA         VA         BVA        FA
  0 C      5.3067     6.0000     0.6933     3.4350     3.4350    -0.0000
  1 C      7.4538     6.0000    -1.4538     1.6384     1.6384    -0.0000
  2 C      4.5222     6.0000     1.4778     1.2948     1.2948    -0.0000
  3 C      5.1293     6.0000     0.8707     1.6049     1.6049     0.0000
  4 C      4.9573     6.0000     1.0427     1.7426     1.7426     0.0000
  5 C      5.4341     6.0000     0.5659     2.9229     2.9229     0.0000
  6 H      1.6818     1.0000    -0.6818     0.3262     0.3262    -0.0000
  7 N      6.5174     7.0000     0.4826     2.1525     2.1525    -0.0000
  8 N      7.8321     7.0000    -0.8321     1.0596     1.0596    -0.0000
  9 H      1.7187     1.0000    -0.7187     0.2270     0.2270     0.0000
 10 H      1.7795     1.0000    -0.7795     0.2485     0.2485    -0.0000
 11 N      6.2920     7.0000     0.7080     2.2093     2.2093    -0.0000
 12 O      8.6991     8.0000    -0.6991     1.2904     1.2904     0.0000
 13 O      8.6760     8.0000    -0.6760     1.3228     1.3228    -0.0000

  Mayer bond orders larger than 0.1
B(  0-C ,  1-C ) :   1.2438 B(  0-C ,  2-C ) :   0.2986 B(  0-C ,  4-C ) :  -0.1320 
B(  0-C ,  5-C ) :   1.3192 B(  0-C ,  6-H ) :   0.2458 B(  0-C ,  9-H ) :   0.2294 
B(  1-C ,  2-C ) :   0.6481 B(  1-C ,  3-C ) :  -0.4110 B(  1-C ,  5-C ) :   0.1202 
B(  1-C ,  6-H ) :  -0.2285 B(  1-C ,  7-N ) :   0.1087 B(  1-C ,  8-N ) :   0.1131 
B(  2-C ,  3-C ) :   0.3741 B(  2-C ,  4-C ) :  -0.1966 B(  2-C ,  7-N ) :   0.9929 
B(  2-C ,  8-N ) :  -0.5982 B(  2-C , 10-H ) :  -0.1209 B(  3-C ,  4-C ) :   0.7162 
B(  3-C ,  5-C ) :  -0.2661 B(  3-C ,  7-N ) :  -0.3841 B(  3-C ,  8-N ) :   0.1685 
B(  3-C , 10-H ) :   0.5223 B(  3-C , 11-N ) :   0.5973 B(  3-C , 12-O ) :   0.1732 
B(  3-C , 13-O ) :   0.1034 B(  4-C ,  5-C ) :   1.3843 B(  4-C ,  6-H ) :   0.1026 
B(  4-C ,  9-H ) :   0.2205 B(  4-C , 10-H ) :  -0.4148 B(  5-C ,  6-H ) :   0.1814 
B(  5-C ,  9-H ) :  -0.1808 B(  5-C , 10-H ) :   0.3248 B(  7-N ,  8-N ) :   1.2455 
B( 10-H , 11-N ) :  -0.1163 B( 11-N , 12-O ) :   0.8756 B( 11-N , 13-O ) :   0.9331 
B( 12-O , 13-O ) :   0.2914 

-------
TIMINGS
-------

Total SCF time: 0 days 0 hours 0 min 58 sec 

Total time                  ....      58.944 sec
Sum of individual times     ....      58.206 sec  ( 98.7%)

Fock matrix formation       ....      46.970 sec  ( 79.7%)
  XC integration            ....       7.126 sec  ( 15.2% of F)
    Basis function eval.    ....       1.568 sec  ( 22.0% of XC)
    Density eval.           ....       1.704 sec  ( 23.9% of XC)
    XC-Functional eval.     ....       0.190 sec  (  2.7% of XC)
    XC-Potential eval.      ....       2.266 sec  ( 31.8% of XC)
Diagonalization             ....       0.224 sec  (  0.4%)
Density matrix formation    ....       0.228 sec  (  0.4%)
Population analysis         ....       0.041 sec  (  0.1%)
Initial guess               ....       0.570 sec  (  1.0%)
Orbital Transformation      ....       0.000 sec  (  0.0%)
Orbital Orthonormalization  ....       0.000 sec  (  0.0%)
DIIS solution               ....       0.596 sec  (  1.0%)
SOSCF solution              ....       0.423 sec  (  0.7%)
Grid generation             ....       9.155 sec  ( 15.5%)

-------------------------   --------------------
FINAL SINGLE POINT ENERGY      -544.974956992291
-------------------------   --------------------



------------------------------------------------------------------------------- 
                         Nudged Elastic Band Calculation                       
------------------------------------------------------------------------------- 

Number of images (incl. end points)     ....  14
Number of intermediate images           ....  12
Number of optimized images              ....  12
Optimization of end points before NEB   ....  NO
Number of atoms                         ....  14
Number of (active) degrees of freedom   ....  42
Constrained atoms                       ....  None

-----------------------------------------
  REACTANT (ANGSTROEM)
-----------------------------------------
C     -1.878915     0.130783    -1.067556 
C     -0.449549     0.075237    -1.038685 
C      0.058188     0.892135    -0.029778 
C     -0.659319     1.704895     0.894463 
C     -2.036046     1.694575     0.803802 
C     -2.643580     0.893883    -0.189474 
H     -2.406996    -0.460883    -1.820952 
N      1.468422     0.843578     0.018223 
N      2.563557     0.677501    -0.092538 
H     -3.733676     0.888316    -0.256716 
H     -2.620231     2.300911     1.491600 
N     -0.004072     2.533208     1.909576 
O      1.230950     2.514217     1.926934 
O     -0.699842     3.190043     2.673491 

-----------------------------------------
  PRODUCT (ANGSTROEM)
-----------------------------------------
C     -2.436290    -0.080182    -0.911973 
C     -1.125286    -0.253528    -0.522689 
C     -0.391317     0.370433     0.279298 
C     -0.891384     1.466904     0.962655 
C     -2.233225     1.795195     0.685618 
C     -2.982460     1.037299    -0.229902 
H     -3.004934    -0.675095    -1.622318 
N      3.438979     1.783298    -0.552008 
N      4.200112     1.103956    -0.129526 
H     -4.019564     1.313232    -0.426697 
H     -2.679616     2.648347     1.193285 
N     -0.094979     2.252404     1.922377 
O      1.061238     1.895147     2.113234 
O     -0.644031     3.209968     2.463646 



----------------------
NEB settings
----------------------
Method type                             ....  climbing image
Threshold for climbing image            ....  2.00e-02 Eh/Bohr 
Free endpoints                          ....  off 
Tangent type                            ....  improved 
Number of intermediate images           ....  12 
Number of images free to move           ....  12 
Spring type for image distribution      ....  distance between adjacent images 
Spring constant                         ....  1.00e-01 Eh/Bohr^2 
Spring force perp. to the path          ....  tan 
Generation of initial path              ....  image dependent pair potential 
Initial path via TS guess               ....  off 

Minimization of RMSD: Rotation          ....  always 
Minimization of RMSD: Translation type  ....  centroid 
Center fixed to origin                  ....  true 

Reparametrization of the path           ....  on reset 
               Every 0 iterations
               Type of interpolation    ....  linear
Convergence thresholds:
Convergence monitored for               ....  all images
Scaling factor                          ....  100.00

Convergence parameters for regular images:
               Max(|Fp|)                ....  1.00e-01 Eh/Bohr
               RMS(Fp)                  ....  5.00e-02 Eh/Bohr

Convergence parameters for climbing image:
               Max(|F|)                 ....  1.00e-03 Eh/Bohr
               RMS(F)                   ....  5.00e-04 Eh/Bohr
Optimization method:
Method                                  ....  L-BFGS (global)
Max. iterations                         ....  1000 
Step size                               ....  1.00 
Maximum allowed step size               ....  0.10 Bohr
Turn on L-BFGS                          ....  0.0000 Eh/Bohr

LBFGS parameters: 
               Memory                   ....  7 
Generation of  the initial path:
Minimize RMSD between reactant and product configurations     .... done
       RMSD before minimization         ....  1.7184 Bohr
       RMSD after minimization          ....  1.7143 Bohr
Performing linear interpolation         ....  done
Interpolation using                     ....  IDPP (Image Dependent Pair Potential)
IDPP-Settings:
       Convergence tolerance            ....  0.0100 1/Ang.^3
       Max. numer of iterations         ....    7000
       Spring constant                  ....  1.0000 1/Ang.^4
       Time step                        ....  0.0100 fs
       Max. movement per iteration      ....  0.0500 Ang.
       Full print                       ....  false 
IDPP successfuly converged in 129 iterations
Displacement along initial path:              6.4292 Bohr
Writing initial trajectory to file      ....  2-NO2-C6H3-N2-NEB-TS_initial_path.trj



----------------------
NEB OPTIMIZATION      
----------------------

Following output files will be written:
Energy profile during opt. written to    ....  2-NO2-C6H3-N2-NEB-TS.interp
Optimization log-file                    ....  2-NO2-C6H3-N2-NEB-TS.log
Current trajectory will be written to    ....  2-NO2-C6H3-N2-NEB-TS_MEP.trj
       and to allxyz file                ....  2-NO2-C6H3-N2-NEB-TS_MEP.allxyz
       and individual images to xyz file ....  2-NO2-C6H3-N2-NEB-TS_im{NIm}.xyz
Trajectory history will be written to    ....  2-NO2-C6H3-N2-NEB-TS_MEP_ALL.trj
Converged CI will be written to          ....  2-NO2-C6H3-N2-NEB-TS_CI-NEB_converged.xyz
Converged TS will be written to          ....  2-NO2-C6H3-N2-NEB-TS.xyz

Single point energy and gradient calculation of reactant and
product configurations (have to be performed only once)
Properties of fixed NEB end points:
               Reactant:
                         E               ....   -544.974957 Eh
                         RMS(F)          ....      0.000120 Eh/Bohr
                         MAX(|F|)        ....      0.000461 Eh/Bohr
               Product:
                         E               ....   -545.015141 Eh
                         RMS(F)          ....      0.000146 Eh/Bohr
                         MAX(|F|)        ....      0.000356 Eh/Bohr



Starting iterations:

Optim.  Iteration  HEI  E(HEI)-E(0)  max(|Fp|)   RMS(Fp)    dS
Switch-on CI threshold               0.020000 
List of participating nodes    ...  2-NO2-C6H3-N2-NEB-TS.hostnames
LBFGS(G)     0      2    0.010212    0.077069   0.027323  6.4290       
LBFGS(G)     1      2    0.010196    0.076982   0.027288  6.4290       
LBFGS(G)     2      1    0.005636    0.042999   0.012171  6.4475       
LBFGS(G)     3      1    0.005643    0.036469   0.007585  6.4469       
LBFGS(G)     4      1    0.005190    0.015338   0.004600  6.4506       

Image  1 will be converted to a climbing image in the next iteration (max(|Fp|) < 0.0200) 

Optim.  Iteration  CI   E(CI)-E(0)   max(|Fp|)   RMS(Fp)    dS     max(|FCI|)   RMS(FCI)
Convergence thresholds               0.100000   0.050000            0.001000    0.000500 
LBFGS(G)     5      1    0.005072    0.010208   0.003874  6.4542    0.014766    0.005653       
LBFGS(G)     6      1    0.005103    0.013187   0.004705  6.4711    0.031841    0.011861       
LBFGS(G)     7      1    0.004592    0.018071   0.005296  6.5250    0.023521    0.009238       
LBFGS(G)     8      1    0.004468    0.058429   0.016170  6.6225    0.032905    0.012906       
LBFGS(G)     9      1    0.004157    0.010312   0.003247  6.5791    0.002728    0.001678       
LBFGS(G)    10      1    0.004137    0.009401   0.002736  6.5803    0.004008    0.002025       
LBFGS(G)    11      1    0.004212    0.014301   0.004514  6.6446    0.024944    0.009920       
LBFGS(G)    12      1    0.004015    0.022738   0.004975  6.7194    0.018445    0.007193       
LBFGS(G)    13      1    0.003950    0.065333   0.008152  6.8504    0.017684    0.006484       
LBFGS(G)    14      1    0.003846    0.013655   0.003531  6.8273    0.008192    0.003110       
LBFGS(G)    15      1    0.003804    0.018818   0.003446  6.8623    0.003570    0.002044       
LBFGS(G)    16      1    0.003813    0.033959   0.004591  6.9756    0.012687    0.004488       
LBFGS(G)    17      1    0.003786    0.021155   0.005058  7.1430    0.005724    0.002997       
LBFGS(G)    18      1    0.003808    0.012391   0.004605  7.3400    0.005377    0.003248       
LBFGS(G)    19      1    0.003842    0.028719   0.005990  7.5608    0.015560    0.005136       
LBFGS(G)    20      1    0.003862    0.033716   0.007243  7.8109    0.014643    0.004754       
LBFGS(G)    21      1    0.003994    0.029960   0.006042  8.1081    0.022797    0.007639       
LBFGS(G)    22      1    0.004089    0.043161   0.008234  8.3987    0.024512    0.008580       
LBFGS(G)    23      1    0.004090    0.050167   0.008177  8.6690    0.020302    0.006992       
LBFGS(G)    24      1    0.004123    0.045496   0.007593  9.0472    0.013188    0.004712       
LBFGS(G)    25      1    0.004063    0.079163   0.018430  9.2644    0.020465    0.006975       
LBFGS(G)    26      1    0.004251    0.071020   0.019503  9.6502    0.028130    0.009974       
LBFGS(G)    27      1    0.004425    0.062480   0.018521  10.0476    0.031919    0.011560       
LBFGS(G)    28      1    0.004493    0.066880   0.016294  10.4555    0.029819    0.010837       
LBFGS(G)    29      1    0.004215    0.034384   0.009532  10.4447    0.015854    0.005064       
LBFGS(G)    30      1    0.004249    0.040426   0.007812  10.7511    0.011836    0.004375       
LBFGS(G)    31      1    0.004170    0.033458   0.006618  10.9821    0.009812    0.004580       
LBFGS(G)    32      1    0.004151    0.019630   0.005576  11.3445    0.011897    0.005103       
LBFGS(G)    33      1    0.004130    0.024784   0.007001  11.7139    0.013443    0.005598       
LBFGS(G)    34      1    0.004064    0.050015   0.011015  12.0890    0.012585    0.005577       
LBFGS(G)    35      1    0.003988    0.084138   0.017198  12.4703    0.011370    0.005542       
LBFGS(G)    36      1    0.003878    0.113571   0.023418  12.8537    0.011312    0.005393       
LBFGS(G)    37      1    0.003709    0.114875   0.022034  13.1318    0.020411    0.006414       
LBFGS(G)    38      1    0.003540    0.115752   0.022829  13.4391    0.023747    0.007267       
LBFGS(G)    39      1    0.003348    0.115480   0.023119  13.7351    0.024483    0.007463       
LBFGS(G)    40      1    0.003094    0.070168   0.011814  13.8254    0.023317    0.007105       
LBFGS(G)    41      1    0.002766    0.050033   0.011948  14.1962    0.011750    0.005982       
LBFGS(G)    42      1    0.002754    0.010972   0.003363  14.0552    0.012565    0.005824       
LBFGS(G)    43      1    0.002640    0.010420   0.003804  14.0356    0.012786    0.005737       
LBFGS(G)    44      1    0.001858    0.083295   0.013988  14.0056    0.014032    0.005376       
LBFGS(G)    45      1    0.001125    0.146325   0.023398  14.0475    0.016018    0.005662       
LBFGS(G)    46      1    0.000787    0.121798   0.020615  14.1894    0.016975    0.006475       
LBFGS(G)    47      1    0.000758    0.024570   0.009855  14.4005    0.012051    0.006200       
LBFGS(G)    48      1    0.000810    0.074682   0.012551  14.2887    0.014237    0.005415       
LBFGS(G)    49      1    0.000994    0.015763   0.004352  14.2480    0.010665    0.004785       
LBFGS(G)    50      1    0.001183    0.039144   0.006483  14.2445    0.011914    0.004521       
LBFGS(G)    51      1    0.001734    0.106038   0.017249  14.2850    0.017443    0.005283       
LBFGS(G)    52      1    0.002238    0.076887   0.014684  14.3453    0.017867    0.005552       
LBFGS(G)    53      1    0.002770    0.038893   0.010155  14.4342    0.009378    0.003799       
LBFGS(G)    54      1    0.002982    0.028626   0.006300  14.4466    0.006807    0.003252       
LBFGS(G)    55      1    0.003761    0.008922   0.003860  14.5272    0.010634    0.003428       
LBFGS(G)    56      1    0.004819    0.034265   0.006700  14.7649    0.018705    0.007129       
LBFGS(G)    57      1    0.005680    0.046408   0.007332  15.0818    0.017571    0.007700       
LBFGS(G)    58      1    0.006009    0.102736   0.017181  15.2739    0.006254    0.003854       
LBFGS(G)    59      1    0.006702    0.163439   0.025066  15.6343    0.008626    0.005003       
LBFGS(G)    60      1    0.007544    0.079789   0.015957  15.9796    0.028625    0.010209       
LBFGS(G)    61      1    0.008552    0.038544   0.009598  16.4106    0.032212    0.011673       
LBFGS(G)    62      1    0.008626    0.073394   0.012232  16.4642    0.032045    0.012358       
LBFGS(G)    63      1    0.008737    0.043394   0.009006  16.5493    0.028045    0.011002       
LBFGS(G)    64      1    0.009244    0.014282   0.003411  16.7762    0.011485    0.006379       
LBFGS(G)    65      1    0.010314    0.037706   0.007350  17.0757    0.014158    0.007116       
LBFGS(G)    66      1    0.011585    0.009235   0.003511  17.3106    0.016735    0.007523       
LBFGS(G)    67      1    0.013556    0.045298   0.006146  17.6787    0.012726    0.007323       
LBFGS(G)    68      1    0.015975    0.081093   0.010868  17.9611    0.026739    0.010589       
LBFGS(G)    69      1    0.018493    0.117141   0.015363  18.3672    0.036328    0.015545       
Warning: Negative curvature. Reseting optimizer..
LBFGS(G)    70      1    0.018493    0.117141   0.015363  18.3672    0.036325    0.015545       
LBFGS(G)    71      1    0.018259    0.078001   0.010820  18.3787    0.027307    0.012752       
LBFGS(G)    72      1    0.017693    0.010329   0.002945  18.3923    0.018512    0.008170       
LBFGS(G)    73      1    0.017317    0.026040   0.004051  18.3857    0.017697    0.008297       
LBFGS(G)    74      1    0.015941    0.050385   0.006856  18.3387    0.018287    0.008721       
LBFGS(G)    75      1    0.013525    0.046097   0.006559  18.2424    0.021466    0.008199       
LBFGS(G)    76      1    0.011720    0.056548   0.011054  18.1223    0.024721    0.008038       
LBFGS(G)    77      1    0.010208    0.065046   0.013968  18.0193    0.045694    0.014348       
LBFGS(G)    78      1    0.009534    0.113162   0.013851  17.9319    0.043343    0.015728       
LBFGS(G)    79      1    0.008561    0.037265   0.008765  17.9639    0.025844    0.011875       
LBFGS(G)    80      1    0.008258    0.041050   0.007993  17.9976    0.025453    0.009057       
LBFGS(G)    81      1    0.009441    0.037355   0.005701  18.0187    0.022626    0.007391       
LBFGS(G)    82      1    0.008367    0.138746   0.018063  17.9010    0.023053    0.007535       
LBFGS(G)    83      1    0.007923    0.050244   0.007508  17.9154    0.023494    0.008131       
LBFGS(G)    84      1    0.007642    0.026778   0.003267  17.8996    0.016527    0.007454       
LBFGS(G)    85      1    0.007355    0.009813   0.002078  17.8752    0.018597    0.007210       
LBFGS(G)    86      1    0.006892    0.020971   0.003369  17.8089    0.019278    0.006831       
LBFGS(G)    87      1    0.006216    0.027906   0.005906  17.6340    0.027369    0.008651       
LBFGS(G)    88      1    0.005888    0.018832   0.002729  17.5360    0.013270    0.006656       
LBFGS(G)    89      1    0.005622    0.013716   0.002656  17.4395    0.016341    0.007098       
LBFGS(G)    90      1    0.004887    0.010652   0.002703  17.2486    0.019376    0.007669       
LBFGS(G)    91      1    0.003954    0.015558   0.003274  17.1147    0.019324    0.008330       
LBFGS(G)    92      1    0.003025    0.004952   0.002173  17.0344    0.023848    0.009031       
LBFGS(G)    93      1    0.002241    0.010219   0.002461  17.0046    0.018338    0.007377       
LBFGS(G)    94      1    0.001850    0.028057   0.004517  17.0306    0.013578    0.005684       
LBFGS(G)    95      1    0.002126    0.007493   0.001564  17.0771    0.019229    0.006428       
LBFGS(G)    96      1    0.003101    0.016212   0.002374  17.1071    0.034387    0.012088       
LBFGS(G)    97      1    0.004516    0.008330   0.001801  17.2421    0.014444    0.006315       
LBFGS(G)    98      1    0.004327    0.010589   0.002328  17.1690    0.021433    0.007097       
LBFGS(G)    99      1    0.004202    0.015514   0.002270  16.9013    0.032829    0.011904       
LBFGS(G)   100      1    0.006764    0.171848   0.017336  16.7134    0.075509    0.031182       
LBFGS(G)   101      1    0.011525    0.155739   0.016882  16.6234    0.107240    0.045702       
LBFGS(G)   102      1    0.004768    0.022096   0.004518  16.6713    0.030947    0.011721       
LBFGS(G)   103      1    0.004191    0.009332   0.002067  16.6673    0.008325    0.005405       
LBFGS(G)   104      1    0.003850    0.015112   0.002659  16.6646    0.012889    0.005092       
LBFGS(G)   105      1    0.003872    0.056324   0.005911  16.6342    0.034852    0.012531       
LBFGS(G)   106      1    0.003540    0.018222   0.002156  16.6277    0.008868    0.003726       
LBFGS(G)   107      1    0.003522    0.005917   0.000860  16.6144    0.009231    0.003587       
LBFGS(G)   108      1    0.003502    0.010221   0.001725  16.5922    0.009905    0.003535       
LBFGS(G)   109      1    0.003478    0.015594   0.002349  16.5460    0.008672    0.003389       
LBFGS(G)   110      1    0.003618    0.005378   0.001390  16.3666    0.018302    0.006209       
LBFGS(G)   111      1    0.004216    0.017907   0.003535  16.2671    0.043559    0.016570       
LBFGS(G)   112      1    0.003614    0.004052   0.001171  16.2874    0.011809    0.004213       
LBFGS(G)   113      1    0.003592    0.002738   0.000819  16.2736    0.003827    0.002456       
LBFGS(G)   114      1    0.003679    0.003840   0.001015  16.2286    0.014942    0.005463       
LBFGS(G)   115      1    0.003663    0.006771   0.001167  16.1901    0.003646    0.001715       
LBFGS(G)   116      1    0.003776    0.022650   0.003175  16.1713    0.011817    0.004293       
LBFGS(G)   117      1    0.003748    0.003983   0.000758  16.1728    0.006214    0.002225       
LBFGS(G)   118      1    0.003737    0.001433   0.000518  16.1713    0.001851    0.001140       
LBFGS(G)   119      1    0.003738    0.004198   0.000843  16.1663    0.006286    0.002142       
LBFGS(G)   120      1    0.003747    0.006488   0.001156  16.1511    0.010254    0.003746       
LBFGS(G)   121      1    0.003732    0.003989   0.000799  16.1212    0.009848    0.003756       
LBFGS(G)   122      1    0.003688    0.003587   0.000655  16.1157    0.001393    0.000953       
LBFGS(G)   123      1    0.003688    0.003117   0.000680  16.1049    0.006703    0.002792       
LBFGS(G)   124      1    0.003664    0.003616   0.000814  16.0853    0.007517    0.003171       

Possible intermediate minimum found at image(s): 7 
  => have a look at the .interp file.
  => it is often a good idea to divide the path calculation into smaller fragments. 

LBFGS(G)   125      1    0.003648    0.073334   0.008560  16.0606    0.015943    0.005965       
LBFGS(G)   126      1    0.003596    0.007923   0.001192  16.0590    0.003736    0.001658       
LBFGS(G)   127      1    0.003592    0.001313   0.000505  16.0590    0.001596    0.001196       
LBFGS(G)   128      1    0.003583    0.003640   0.000627  16.0588    0.001682    0.000950       
LBFGS(G)   129      1    0.003587    0.007476   0.001014  16.0593    0.002408    0.001363       
LBFGS(G)   130      1    0.003602    0.007978   0.001166  16.0638    0.001881    0.001653       
LBFGS(G)   131      1    0.003592    0.002221   0.000550  16.0640    0.001955    0.001390       
LBFGS(G)   132      1    0.003580    0.004010   0.000625  16.0640    0.001101    0.000897       
LBFGS(G)   133      1    0.003573    0.003126   0.000636  16.0646    0.001926    0.000988       
LBFGS(G)   134      1    0.003583    0.005022   0.001053  16.0626    0.002939    0.001822       
LBFGS(G)   135      1    0.003574    0.002184   0.000604  16.0616    0.002132    0.001613       
LBFGS(G)   136      1    0.003541    0.006157   0.001208  16.0611    0.004150    0.002019       
LBFGS(G)   137      1    0.003509    0.006847   0.001044  16.0623    0.003847    0.001778       
LBFGS(G)   138      1    0.003482    0.011056   0.001561  16.0821    0.004581    0.002347       
LBFGS(G)   139      1    0.003472    0.002381   0.000677  16.0829    0.002606    0.001765       
LBFGS(G)   140      1    0.003524    0.015343   0.001663  16.1062    0.004660    0.002176       
LBFGS(G)   141      1    0.003873    0.013638   0.002084  16.1949    0.005944    0.004033       
LBFGS(G)   142      1    0.003860    0.032347   0.003651  16.2094    0.009466    0.004100       
LBFGS(G)   143      1    0.003730    0.041273   0.005510  16.1455    0.011524    0.004209       
LBFGS(G)   144      1    0.003797    0.010248   0.001396  16.1807    0.005787    0.002587       
LBFGS(G)   145      1    0.003829    0.007797   0.000881  16.1956    0.002486    0.001605       
LBFGS(G)   146      1    0.003880    0.010661   0.001360  16.2144    0.002348    0.001553       
LBFGS(G)   147      1    0.003930    0.003225   0.000682  16.2330    0.004327    0.002014       
LBFGS(G)   148      1    0.004053    0.007330   0.000978  16.2876    0.002489    0.001964       
LBFGS(G)   149      1    0.004220    0.006802   0.001437  16.4234    0.004134    0.003104       
LBFGS(G)   150      1    0.004120    0.036165   0.007409  16.6078    0.023559    0.007918       
LBFGS(G)   151      1    0.004082    0.005416   0.001078  16.4871    0.006173    0.002723       
LBFGS(G)   152      1    0.004017    0.002033   0.000507  16.5106    0.005490    0.002668       
LBFGS(G)   153      1    0.003874    0.006619   0.000966  16.5306    0.007198    0.003060       
LBFGS(G)   154      1    0.003459    0.013993   0.002305  16.6033    0.009819    0.004094       
LBFGS(G)   155      1    0.003129    0.005110   0.001340  16.6529    0.010366    0.004560       
LBFGS(G)   156      1    0.002611    0.006462   0.001325  16.7422    0.009957    0.004831       
LBFGS(G)   157      1    0.001945    0.013456   0.002148  16.9004    0.015905    0.004879       
LBFGS(G)   158      1    0.001830    0.014076   0.002190  16.9898    0.010568    0.005017       
LBFGS(G)   159      1    0.001923    0.013567   0.002305  17.0044    0.013832    0.005455       
LBFGS(G)   160      1    0.002640    0.007949   0.001951  17.0446    0.008841    0.004285       
LBFGS(G)   161      1    0.005974    0.106173   0.017653  16.9915    0.089433    0.034835       
LBFGS(G)   162      1    0.002968    0.009298   0.001761  17.0390    0.011575    0.004155       
LBFGS(G)   163      1    0.003033    0.006277   0.001241  17.0366    0.009214    0.003446       
LBFGS(G)   164      1    0.003467    0.004858   0.000994  17.0165    0.009595    0.003405       
LBFGS(G)   165      1    0.003745    0.013914   0.002596  17.0028    0.013069    0.005357       
LBFGS(G)   166      1    0.003673    0.003535   0.000764  16.9939    0.003041    0.001922       
LBFGS(G)   167      1    0.003726    0.007411   0.001235  16.9811    0.004826    0.002101       
LBFGS(G)   168      1    0.003826    0.011039   0.001982  16.9598    0.014350    0.005218       
LBFGS(G)   169      1    0.003693    0.005337   0.001104  16.9469    0.007629    0.003479       
LBFGS(G)   170      1    0.003593    0.003730   0.000820  16.9338    0.006129    0.002756       
LBFGS(G)   171      1    0.003611    0.008930   0.002285  16.9038    0.007846    0.002725       
LBFGS(G)   172      1    0.003668    0.011089   0.002447  16.8806    0.007086    0.002785       
LBFGS(G)   173      1    0.003645    0.002924   0.000925  16.8847    0.004682    0.002209       
LBFGS(G)   174      1    0.003652    0.002168   0.000409  16.8807    0.004287    0.001914       
LBFGS(G)   175      1    0.003699    0.005111   0.001012  16.8653    0.004751    0.001869       
LBFGS(G)   176      1    0.003734    0.006589   0.000956  16.8423    0.002423    0.001627       
LBFGS(G)   177      1    0.003733    0.001959   0.000644  16.8339    0.002421    0.001320       
LBFGS(G)   178      1    0.003708    0.004583   0.000720  16.8151    0.001523    0.001302       
LBFGS(G)   179      1    0.003626    0.009218   0.001968  16.7928    0.001904    0.001322       
LBFGS(G)   180      1    0.003599    0.004504   0.000634  16.7897    0.001630    0.001361       
LBFGS(G)   181      1    0.003601    0.001691   0.000434  16.7937    0.001672    0.001160       
LBFGS(G)   182      1    0.003602    0.002550   0.000551  16.7956    0.001616    0.000995       
LBFGS(G)   183      1    0.003615    0.004163   0.000538  16.8005    0.001158    0.000910       

Possible intermediate minimum found at image(s): 9 
  => have a look at the .interp file.
  => it is often a good idea to divide the path calculation into smaller fragments. 

LBFGS(G)   184      1    0.003625    0.010052   0.001656  16.7993    0.001625    0.001015       
LBFGS(G)   185      1    0.003620    0.001844   0.000340  16.8011    0.001034    0.000760       
LBFGS(G)   186      1    0.003619    0.000921   0.000233  16.8018    0.001061    0.000652       
LBFGS(G)   187      1    0.003615    0.002814   0.000414  16.8035    0.001079    0.000582       
LBFGS(G)   188      1    0.003611    0.002249   0.000346  16.8033    0.001079    0.000817       
LBFGS(G)   189      1    0.003581    0.003229   0.000826  16.8023    0.001722    0.001059       
LBFGS(G)   190      1    0.003543    0.003150   0.000627  16.7997    0.002035    0.001110       
LBFGS(G)   191      1    0.003537    0.001249   0.000350  16.7998    0.001838    0.001010       
LBFGS(G)   192      1    0.003510    0.003688   0.000541  16.7973    0.002214    0.001253       
LBFGS(G)   193      1    0.003498    0.003769   0.000596  16.7936    0.002430    0.001509       
LBFGS(G)   194      1    0.003499    0.011143   0.002584  16.7799    0.002286    0.001322       
LBFGS(G)   195      1    0.003512    0.003224   0.000724  16.7788    0.002061    0.001357       
LBFGS(G)   196      1    0.003517    0.001575   0.000380  16.7788    0.002268    0.001280       
LBFGS(G)   197      1    0.003527    0.002936   0.000709  16.7774    0.002335    0.001143       
LBFGS(G)   198      1    0.003551    0.005098   0.000895  16.7740    0.002112    0.001126       
LBFGS(G)   199      1    0.003596    0.009172   0.001411  16.7629    0.001464    0.001346       
LBFGS(G)   200      1    0.003588    0.002228   0.000687  16.7656    0.001367    0.001095       
LBFGS(G)   201      1    0.003588    0.001894   0.000599  16.7654    0.001435    0.000958       
LBFGS(G)   202      1    0.003569    0.004340   0.000619  16.7637    0.001725    0.000938       
LBFGS(G)   203      1    0.003538    0.016880   0.003942  16.7589    0.002881    0.001235       
LBFGS(G)   204      1    0.003552    0.001776   0.000474  16.7623    0.001530    0.000931       
LBFGS(G)   205      1    0.003549    0.001379   0.000320  16.7628    0.001446    0.000909       
LBFGS(G)   206      1    0.003526    0.001949   0.000502  16.7675    0.002127    0.001057       
LBFGS(G)   207      1    0.003518    0.001657   0.000408  16.7690    0.002164    0.001122       
LBFGS(G)   208      1    0.003525    0.007175   0.000930  16.7789    0.002559    0.001082       
LBFGS(G)   209      1    0.003551    0.002804   0.000447  16.7827    0.002360    0.001223       
LBFGS(G)   210      1    0.003568    0.001156   0.000236  16.7828    0.002089    0.001140       
LBFGS(G)   211      1    0.003564    0.004335   0.000768  16.7828    0.002662    0.001004       
LBFGS(G)   212      1    0.003558    0.002416   0.000439  16.7827    0.001348    0.000680       
LBFGS(G)   213      1    0.003555    0.001289   0.000277  16.7821    0.001455    0.000655       
LBFGS(G)   214      1    0.003540    0.001770   0.000328  16.7817    0.000820    0.000477       

                                .--------------------.
          ----------------------| CI-NEB convergence |-------------------------
          Item                value                   Tolerance       Converged
          ---------------------------------------------------------------------
          RMS(Fp)             0.0003278617            0.0500000000      YES
          MAX(|Fp|)           0.0017697709            0.1000000000      YES
          RMS(FCI)            0.0004766962            0.0005000000      YES
          MAX(|FCI|)          0.0008199673            0.0010000000      YES
          ---------------------------------------------------------------------

The elastic band and climbing image have converged succesfully to a MEP in 214 iterations!


                    *********************H U R R A Y*********************
                    ***        THE NEB OPTIMIZATION HAS CONVERGED     ***
                    *****************************************************



---------------------------------------------------------------
                         PATH SUMMARY              
---------------------------------------------------------------
All forces in Eh/Bohr.

Image Dist.(Ang.)    E(Eh)   dE(kcal/mol)  max(|Fp|)  RMS(Fp)
  0     0.000    -544.97496      0.00       0.00037   0.00017
  1     0.250    -544.97142      2.22       0.00082   0.00048 <= CI
  2     0.980    -544.99598    -13.19       0.00070   0.00047
  3     1.708    -545.01162    -23.01       0.00056   0.00028
  4     2.428    -545.01463    -24.90       0.00096   0.00049
  5     3.147    -545.01480    -25.00       0.00177   0.00080
  6     3.863    -545.01471    -24.94       0.00059   0.00025
[...]

Components:
Nuclear Repulsion  :          545.74544765 Eh           14850.48861 eV
Electronic Energy  :        -1090.71688120 Eh          -29679.91524 eV
One Electron Energy:        -1820.83628715 Eh          -49547.47432 eV
Two Electron Energy:          730.11940595 Eh           19867.55908 eV

Virial components:
Potential Energy   :        -1086.66464441 Eh          -29569.64827 eV
Kinetic Energy     :          541.69321086 Eh           14740.22165 eV
Virial Ratio       :            2.00605181


DFT components:
N(Alpha)           :       37.999999607395 electrons
N(Beta)            :       37.999999607395 electrons
N(Total)           :       75.999999214791 electrons
E(X)               :      -54.266871544029 Eh       
E(C)               :       -3.402979048072 Eh       
E(XC)              :      -57.669850592101 Eh       
DFET-embed. en.    :        0.000000000000 Eh       

---------------
SCF CONVERGENCE
---------------

  Last Energy change         ...   -7.6420e-10  Tolerance :   1.0000e-08
  Last MAX-Density change    ...    6.0998e-03  Tolerance :   1.0000e-07
  Last RMS-Density change    ...    8.3016e-05  Tolerance :   5.0000e-09
  Last Orbital Gradient      ...    2.3458e-06  Tolerance :   1.0000e-05
  Last Orbital Rotation      ...    3.2431e-06  Tolerance :   1.0000e-05

             **** THE GBW FILE WAS UPDATED (2-NO2-C6H3-N2-NEB-TS.gbw) ****
             **** DENSITY FILE WAS UPDATED (2-NO2-C6H3-N2-NEB-TS.scfp.tmp) ****
             **** ENERGY FILE WAS UPDATED (2-NO2-C6H3-N2-NEB-TS.en.tmp) ****
----------------
ORBITAL ENERGIES
----------------

  NO   OCC          E(Eh)            E(eV) 
   0   2.0000     -19.210635      -522.7479 
   1   2.0000     -19.210154      -522.7349 
   2   2.0000     -14.599238      -397.2655 
   3   2.0000     -14.525936      -395.2708 
   4   2.0000     -14.499715      -394.5573 
   5   2.0000     -10.290773      -280.0262 
   6   2.0000     -10.286038      -279.8973 
   7   2.0000     -10.238876      -278.6140 
   8   2.0000     -10.230004      -278.3726 
   9   2.0000     -10.228484      -278.3312 
  10   2.0000     -10.185081      -277.1501 
  11   2.0000      -1.260055       -34.2878 
  12   2.0000      -1.189349       -32.3638 
  13   2.0000      -1.086966       -29.5779 
  14   2.0000      -0.920040       -25.0356 
  15   2.0000      -0.826619       -22.4935 
  16   2.0000      -0.812077       -22.0978 
  17   2.0000      -0.731998       -19.9187 
  18   2.0000      -0.690927       -18.8011 
  19   2.0000      -0.629420       -17.1274 
  20   2.0000      -0.607972       -16.5438 
  21   2.0000      -0.571576       -15.5534 
  22   2.0000      -0.565287       -15.3822 
  23   2.0000      -0.542805       -14.7705 
  24   2.0000      -0.534344       -14.5402 
  25   2.0000      -0.531713       -14.4686 
  26   2.0000      -0.519823       -14.1451 
  27   2.0000      -0.490258       -13.3406 
  28   2.0000      -0.477030       -12.9806 
  29   2.0000      -0.425824       -11.5873 
  30   2.0000      -0.410982       -11.1834 
  31   2.0000      -0.399294       -10.8653 
  32   2.0000      -0.345757        -9.4085 
  33   2.0000      -0.345138        -9.3917 
  34   2.0000      -0.326494        -8.8843 
  35   2.0000      -0.303543        -8.2598 
  36   2.0000      -0.290202        -7.8968 
  37   2.0000      -0.231351        -6.2954 
  38   0.0000      -0.131267        -3.5720 
  39   0.0000      -0.106207        -2.8900 
  40   0.0000      -0.093363        -2.5405 
  41   0.0000      -0.024585        -0.6690 
  42   0.0000      -0.021805        -0.5933 
  43   0.0000      -0.016223        -0.4415 
  44   0.0000       0.004235         0.1152 
  45   0.0000       0.008709         0.2370 
  46   0.0000       0.013271         0.3611 
  47   0.0000       0.032660         0.8887 
  48   0.0000       0.040719         1.1080 
  49   0.0000       0.045582         1.2404 
  50   0.0000       0.055686         1.5153 
  51   0.0000       0.063638         1.7317 
  52   0.0000       0.071720         1.9516 
  53   0.0000       0.077064         2.0970 
  54   0.0000       0.079367         2.1597 
  55   0.0000       0.085095         2.3156 
  56   0.0000       0.088523         2.4088 
  57   0.0000       0.093407         2.5417 
  58   0.0000       0.103451         2.8150 
  59   0.0000       0.109576         2.9817 
  60   0.0000       0.110440         3.0052 
  61   0.0000       0.117875         3.2075 
  62   0.0000       0.120335         3.2745 
  63   0.0000       0.122936         3.3453 
  64   0.0000       0.123590         3.3631 
  65   0.0000       0.136531         3.7152 
  66   0.0000       0.138533         3.7697 
  67   0.0000       0.148127         4.0307 
  68   0.0000       0.152188         4.1413 
  69   0.0000       0.165722         4.5095 
  70   0.0000       0.171555         4.6682 
  71   0.0000       0.180958         4.9241 
  72   0.0000       0.181759         4.9459 
  73   0.0000       0.183926         5.0049 
  74   0.0000       0.188771         5.1367 
  75   0.0000       0.199052         5.4165 
  76   0.0000       0.201456         5.4819 
  77   0.0000       0.212846         5.7918 
  78   0.0000       0.217477         5.9178 
  79   0.0000       0.218058         5.9337 
  80   0.0000       0.224914         6.1202 
  81   0.0000       0.232096         6.3157 
  82   0.0000       0.237456         6.4615 
  83   0.0000       0.249315         6.7842 
  84   0.0000       0.254091         6.9142 
  85   0.0000       0.260673         7.0933 
  86   0.0000       0.265912         7.2358 
  87   0.0000       0.268682         7.3112 
  88   0.0000       0.271873         7.3980 
  89   0.0000       0.283525         7.7151 
  90   0.0000       0.285907         7.7799 
  91   0.0000       0.290036         7.8923 
  92   0.0000       0.291904         7.9431 
  93   0.0000       0.296667         8.0727 
  94   0.0000       0.304580         8.2880 
  95   0.0000       0.309375         8.4185 
  96   0.0000       0.321281         8.7425 
  97   0.0000       0.330284         8.9875 
  98   0.0000       0.337276         9.1777 
  99   0.0000       0.350402         9.5349 
 100   0.0000       0.351588         9.5672 
 101   0.0000       0.367480         9.9996 
 102   0.0000       0.378749        10.3063 
 103   0.0000       0.385657        10.4943 
 104   0.0000       0.391254        10.6466 
 105   0.0000       0.412800        11.2329 
 106   0.0000       0.416078        11.3221 
 107   0.0000       0.421934        11.4814 
 108   0.0000       0.437792        11.9129 
 109   0.0000       0.439283        11.9535 
 110   0.0000       0.457795        12.4572 
 111   0.0000       0.472247        12.8505 
 112   0.0000       0.489150        13.3104 
 113   0.0000       0.491473        13.3737 
 114   0.0000       0.505144        13.7457 
 115   0.0000       0.507679        13.8147 
 116   0.0000       0.510726        13.8976 
 117   0.0000       0.517154        14.0725 
 118   0.0000       0.529415        14.4061 
 119   0.0000       0.530620        14.4389 
 120   0.0000       0.545572        14.8458 
 121   0.0000       0.559324        15.2200 
 122   0.0000       0.565492        15.3878 
 123   0.0000       0.568750        15.4765 
 124   0.0000       0.583792        15.8858 
 125   0.0000       0.587434        15.9849 
 126   0.0000       0.590671        16.0730 
 127   0.0000       0.598747        16.2927 
 128   0.0000       0.614334        16.7169 
 129   0.0000       0.616576        16.7779 
 130   0.0000       0.634369        17.2621 
 131   0.0000       0.641960        17.4686 
 132   0.0000       0.649572        17.6757 
 133   0.0000       0.665011        18.0959 
 134   0.0000       0.681374        18.5411 
 135   0.0000       0.688975        18.7480 
 136   0.0000       0.699833        19.0434 
 137   0.0000       0.701296        19.0832 
 138   0.0000       0.706675        19.2296 
 139   0.0000       0.708751        19.2861 
 140   0.0000       0.719000        19.5650 
 141   0.0000       0.730153        19.8685 
 142   0.0000       0.731341        19.9008 
 143   0.0000       0.748127        20.3576 
 144   0.0000       0.749131        20.3849 
 145   0.0000       0.754895        20.5417 
 146   0.0000       0.765720        20.8363 
 147   0.0000       0.771937        21.0055 
 148   0.0000       0.772336        21.0163 
 149   0.0000       0.777627        21.1603 
 150   0.0000       0.790473        21.5099 
 151   0.0000       0.819576        22.3018 
 152   0.0000       0.837504        22.7896 
 153   0.0000       0.841064        22.8865 
 154   0.0000       0.845824        23.0160 
 155   0.0000       0.871056        23.7026 
 156   0.0000       0.877109        23.8673 
 157   0.0000       0.887217        24.1424 
 158   0.0000       0.897173        24.4133 
 159   0.0000       0.911520        24.8037 
 160   0.0000       0.961137        26.1539 
 161   0.0000       0.972184        26.4545 
 162   0.0000       0.976544        26.5731 
 163   0.0000       1.001047        27.2399 
 164   0.0000       1.007993        27.4289 
 165   0.0000       1.019518        27.7425 
 166   0.0000       1.035793        28.1854 
 167   0.0000       1.037062        28.2199 
 168   0.0000       1.063378        28.9360 
 169   0.0000       1.073402        29.2087 
 170   0.0000       1.092249        29.7216 
 171   0.0000       1.099183        29.9103 
 172   0.0000       1.142434        31.0872 
 173   0.0000       1.157107        31.4865 
 174   0.0000       1.166319        31.7372 
 175   0.0000       1.180380        32.1198 
 176   0.0000       1.202274        32.7156 
 177   0.0000       1.208058        32.8729 
 178   0.0000       1.212144        32.9841 
 179   0.0000       1.230035        33.4709 
 180   0.0000       1.242848        33.8196 
 181   0.0000       1.254204        34.1286 
 182   0.0000       1.256472        34.1904 
 183   0.0000       1.287431        35.0328 
 184   0.0000       1.290828        35.1252 
 185   0.0000       1.298732        35.3403 
 186   0.0000       1.325471        36.0679 
 187   0.0000       1.330408        36.2022 
 188   0.0000       1.345697        36.6183 
 189   0.0000       1.351424        36.7741 
 190   0.0000       1.375507        37.4295 
 191   0.0000       1.386735        37.7350 
 192   0.0000       1.394174        37.9374 
 193   0.0000       1.403052        38.1790 
 194   0.0000       1.407800        38.3082 
 195   0.0000       1.421868        38.6910 
 196   0.0000       1.429539        38.8997 
 197   0.0000       1.434933        39.0465 
 198   0.0000       1.481008        40.3003 
 199   0.0000       1.494155        40.6580 
 200   0.0000       1.528134        41.5827 
 201   0.0000       1.534649        41.7599 
 202   0.0000       1.557627        42.3852 
 203   0.0000       1.570858        42.7452 
 204   0.0000       1.591231        43.2996 
 205   0.0000       1.600741        43.5584 
 206   0.0000       1.613280        43.8996 
 207   0.0000       1.619835        44.0780 
 208   0.0000       1.632226        44.4151 
 209   0.0000       1.647363        44.8270 
 210   0.0000       1.665048        45.3083 
 211   0.0000       1.702270        46.3211 
 212   0.0000       1.714818        46.6626 
 213   0.0000       1.730986        47.1025 
 214   0.0000       1.738129        47.2969 
 215   0.0000       1.771427        48.2030 
 216   0.0000       1.797231        48.9051 
 217   0.0000       1.800018        48.9810 
 218   0.0000       1.858661        50.5767 
 219   0.0000       1.873926        50.9921 
 220   0.0000       1.878107        51.1059 
 221   0.0000       1.900146        51.7056 
 222   0.0000       1.918484        52.2046 
 223   0.0000       1.924347        52.3641 
 224   0.0000       1.928487        52.4768 
 225   0.0000       1.960605        53.3508 
 226   0.0000       1.988561        54.1115 
 227   0.0000       2.007096        54.6159 
 228   0.0000       2.031161        55.2707 
 229   0.0000       2.037558        55.4448 
 230   0.0000       2.052269        55.8451 
 231   0.0000       2.058380        56.0114 
 232   0.0000       2.076318        56.4995 
 233   0.0000       2.083271        56.6887 
 234   0.0000       2.101599        57.1874 
 235   0.0000       2.145377        58.3787 
 236   0.0000       2.189865        59.5893 
 237   0.0000       2.190833        59.6156 
 238   0.0000       2.211971        60.1908 
 239   0.0000       2.269195        61.7479 
 240   0.0000       2.295889        62.4743 
 241   0.0000       2.301063        62.6151 
 242   0.0000       2.309400        62.8420 
 243   0.0000       2.325949        63.2923 
 244   0.0000       2.347914        63.8900 
 245   0.0000       2.374374        64.6100 
 246   0.0000       2.387625        64.9706 
 247   0.0000       2.426145        66.0188 
 248   0.0000       2.463036        67.0226 
 249   0.0000       2.480564        67.4996 
 250   0.0000       2.548837        69.3574 
 251   0.0000       2.562656        69.7334 
 252   0.0000       2.622860        71.3716 
 253   0.0000       2.665587        72.5343 
 254   0.0000       2.737651        74.4953 
 255   0.0000       2.747847        74.7727 
 256   0.0000       2.798090        76.1399 
 257   0.0000       2.828015        76.9542 
 258   0.0000       2.856152        77.7199 
 259   0.0000       2.878885        78.3385 
 260   0.0000       2.885046        78.5061 
 261   0.0000       3.049848        82.9906 
 262   0.0000       3.082094        83.8680 
 263   0.0000       3.114065        84.7380 
 264   0.0000       3.174787        86.3903 
 265   0.0000       3.252825        88.5139 
 266   0.0000       3.267398        88.9104 
 267   0.0000       3.291940        89.5783 
 268   0.0000       3.294896        89.6587 
 269   0.0000       3.351792        91.2069 
 270   0.0000       3.375004        91.8385 
 271   0.0000       3.439758        93.6006 
 272   0.0000       3.450825        93.9017 
 273   0.0000       3.561697        96.9187 
 274   0.0000       3.582205        97.4768 
 275   0.0000       3.584093        97.5281 
 276   0.0000       3.777999       102.8046 
 277   0.0000       3.796950       103.3203 
 278   0.0000       3.819541       103.9350 
 279   0.0000       4.163270       113.2883 
-------
TIMINGS
-------

Total SCF time: 0 days 0 hours 0 min 36 sec 

Total time                  ....      36.635 sec
Sum of individual times     ....      35.961 sec  ( 98.2%)

Fock matrix formation       ....      26.153 sec  ( 71.4%)
  XC integration            ....       3.539 sec  ( 13.5% of F)
    Basis function eval.    ....       0.902 sec  ( 25.5% of XC)
    Density eval.           ....       0.993 sec  ( 28.1% of XC)
    XC-Functional eval.     ....       0.113 sec  (  3.2% of XC)
    XC-Potential eval.      ....       0.608 sec  ( 17.2% of XC)
Diagonalization             ....       0.029 sec  (  0.1%)
Density matrix formation    ....       0.113 sec  (  0.3%)
Population analysis         ....       0.000 sec  (  0.0%)
Initial guess               ....       0.055 sec  (  0.1%)
Orbital Transformation      ....       0.000 sec  (  0.0%)
Orbital Orthonormalization  ....       0.025 sec  (  0.1%)
DIIS solution               ....       0.010 sec  (  0.0%)
SOSCF solution              ....       0.373 sec  (  1.0%)
Grid generation             ....       9.229 sec  ( 25.2%)

-------------------------   --------------------
FINAL SINGLE POINT ENERGY      -544.971433544746
-------------------------   --------------------

                                *** OPTIMIZATION RUN DONE ***


                    ***********************HURRAY************************
                    ***        THE TS OPTIMIZATION HAS CONVERGED      ***
                    *****************************************************



---------------------------------------------------------------
                      PATH SUMMARY FOR NEB-TS             
---------------------------------------------------------------
All forces in Eh/Bohr. Global forces for TS.

Image     E(Eh)   dE(kcal/mol)  max(|Fp|)  RMS(Fp)
  0    -544.97496     0.00       0.00037   0.00017
  1    -544.97142     2.22       0.00082   0.00048 <= CI
 TS    -544.97143     2.21       0.00016   0.00007 <= TS
  2    -544.99598   -13.19       0.00070   0.00047
  3    -545.01162   -23.01       0.00056   0.00028
  4    -545.01463   -24.90       0.00096   0.00049
  5    -545.01480   -25.00       0.00177   0.00080
  6    -545.01471   -24.94       0.00059   0.00025
  7    -545.01475   -24.97       0.00047   0.00023
  8    -545.01483   -25.02       0.00018   0.00010
  9    -545.01489   -25.06       0.00035   0.00018
 10    -545.01490   -25.06       0.00034   0.00018
 11    -545.01489   -25.06       0.00028   0.00014
 12    -545.01504   -25.15       0.00020   0.00009
 13    -545.01514   -25.22       0.00036   0.00025
----------
STATISTICS
----------

For the individual parts of the NEB, NEB-CI or NEB-TS run:

Number of iterations:
     NEB                               ... 215  96.4%
     TS optimization                   ... 8  3.6%
Number of SCF / gradient calculations:
     NEB                               ... 2582  99.7%
     TS optimization                   ... 8  0.3%

----------
 TIMINGS
----------

For the individual parts of the NEB, NEB-CI or NEB-TS run:

Total                                  ...   143198.739 sec
NEB                                    ...   142665.597 sec  99.6%
TS Optimization                        ...      533.142 sec  0.4%


                            ***************************************
                            *     ORCA property calculations      *
                            ***************************************

                                    ---------------------
                                    Active property flags
                                    ---------------------
   (+) Dipole Moment


------------------------------------------------------------------------------
                       ORCA ELECTRIC PROPERTIES CALCULATION
------------------------------------------------------------------------------

Dipole Moment Calculation                       ... on
Quadrupole Moment Calculation                   ... off
Polarizability Calculation                      ... off
GBWName                                         ... 2-NO2-C6H3-N2-NEB-TS.gbw
Electron density file                           ... 2-NO2-C6H3-N2-NEB-TS.scfp.tmp
The origin for moment calculation is the CENTER OF MASS  = ( 1.158253,  0.319402  0.453009)

-------------
DIPOLE MOMENT
-------------
                                X             Y             Z
Electronic contribution:      7.02452       1.24724       1.92710
Nuclear contribution   :     -7.57377      -1.48213      -2.23970
                        -----------------------------------------
Total Dipole Moment    :     -0.54925      -0.23489      -0.31260
                        -----------------------------------------
Magnitude (a.u.)       :      0.67422
Magnitude (Debye)      :      1.71372



--------------------
Rotational spectrum 
--------------------
 
Rotational constants in cm-1:     0.049114     0.041654     0.022539 
Rotational constants in MHz :  1472.403045  1248.741055   675.690498 

 Dipole components along the rotational axes: 
x,y,z [a.u.] :     0.666685     0.100483     0.001174 
x,y,z [Debye]:     1.694578     0.255407     0.002984 

 

Timings for individual modules:

Sum of individual times         ...      733.089 sec (=  12.218 min)
GTO integral calculation        ...       27.721 sec (=   0.462 min)   3.8 %
SCF iterations                  ...      550.067 sec (=   9.168 min)  75.0 %
SCF Gradient evaluation         ...      154.154 sec (=   2.569 min)  21.0 %
Geometry relaxation             ...        1.147 sec (=   0.019 min)   0.2 %
                             ****ORCA TERMINATED NORMALLY****
TOTAL RUN TIME: 1 days 15 hours 47 minutes 43 seconds 451 msec
