
                                 *****************
                                 * O   R   C   A *
                                 *****************

           --- An Ab Initio, DFT and Semiempirical electronic structure package ---

                  #######################################################
                  #                        -***-                        #
                  #          Department of theory and spectroscopy      #
                  #               Directorship: Frank Neese             #
                  #        Max Planck Institute fuer Kohlenforschung    #
                  #                Kaiser Wilhelm Platz 1               #
                  #                 D-45470 Muelheim/Ruhr               #
                  #                      Germany                        #
                  #                                                     #
                  #                  All rights reserved                #
                  #                        -***-                        #
                  #######################################################


                         Program Version 4.1.0  - RELEASE  -


 With contributions from (in alphabetic order):
   Daniel Aravena         : Magnetic Properties
   Michael Atanasov       : Ab Initio Ligand Field Theory
   Alexander A. Auer      : GIAO ZORA
   Ute Becker             : Parallelization
   Giovanni Bistoni       : ED, Open-shell LED
   Martin Brehm           : Molecular dynamics
   Dmytro Bykov           : SCF Hessian
   Vijay G. Chilkuri      : MRCI spin determinant printing
   Dipayan Datta          : RHF DLPNO-CCSD density
   Achintya Kumar Dutta   : EOM-CC, STEOM-CC
   Dmitry Ganyushin       : Spin-Orbit,Spin-Spin,Magnetic field MRCI
   Miquel Garcia          : C-PCM Hessian
   Yang Guo               : DLPNO-NEVPT2, CIM, IAO-localization
   Andreas Hansen         : Spin unrestricted coupled pair/coupled cluster methods
   Benjamin Helmich-Paris : CASSCF linear response (MC-RPA)
   Lee Huntington         : MR-EOM, pCC
   Robert Izsak           : Overlap fitted RIJCOSX, COSX-SCS-MP3, EOM
   Christian Kollmar      : KDIIS, OOCD, Brueckner-CCSD(T), CCSD density
   Simone Kossmann        : Meta GGA functionals, TD-DFT gradient, OOMP2, MP2 Hessian
   Martin Krupicka        : AUTO-CI
   Lucas Lang             : DCDCAS
   Dagmar Lenk            : GEPOL surface, SMD
   Dimitrios Liakos       : Extrapolation schemes; parallel MDCI
   Dimitrios Manganas     : ROCIS; embedding schemes
   Dimitrios Pantazis     : SARC Basis sets
   Taras Petrenko         : DFT Hessian,TD-DFT gradient, ASA, ECA, R-Raman, ABS, FL, XAS/XES, NRVS
   Peter Pinski           : DLPNO-MP2, DLPNO-MP2 Gradient
   Christoph Reimann      : Effective Core Potentials
   Marius Retegan         : Local ZFS, SOC
   Christoph Riplinger    : Optimizer, TS searches, QM/MM, DLPNO-CCSD(T), (RO)-DLPNO pert. Triples
   Tobias Risthaus        : Range-separated hybrids, TD-DFT gradient, RPA, STAB
   Michael Roemelt        : Restricted open shell CIS
   Masaaki Saitow         : Open-shell DLPNO
   Barbara Sandhoefer     : DKH picture change effects
   Avijit Sen             : IP-ROCIS
   Kantharuban Sivalingam : CASSCF convergence, NEVPT2, FIC-MRCI
   Bernardo de Souza      : ESD, SOC TD-DFT
   Georgi Stoychev        : AutoAux, RI-MP2 NMR
   Willem Van den Heuvel  : Paramagnetic NMR
   Boris Wezisla          : Elementary symmetry handling
   Frank Wennmohs         : Technical directorship


 We gratefully acknowledge several colleagues who have allowed us to
 interface, adapt or use parts of their codes:
   Stefan Grimme, W. Hujo, H. Kruse,             : VdW corrections, initial TS optimization,
                  C. Bannwarth                     DFT functionals, gCP, sTDA/sTD-DF
   Ed Valeev                                     : LibInt (2-el integral package), F12 methods
   Garnet Chan, S. Sharma, J. Yang, R. Olivares  : DMRG
   Ulf Ekstrom                                   : XCFun DFT Library
   Mihaly Kallay                                 : mrcc  (arbitrary order and MRCC methods)
   Andreas Klamt, Michael Diedenhofen            : otool_cosmo (COSMO solvation model)
   Jiri Pittner, Ondrej Demel                    : Mk-CCSD
   Frank Weinhold                                : gennbo (NPA and NBO analysis)
   Christopher J. Cramer and Donald G. Truhlar   : smd solvation model
   Lars Goerigk                                  : TD-DFT with DH, B97 family of functionals
   V. Asgeirsson, H. Jonsson                     : NEB implementation
   FAccTs GmbH                                   : IRC, NEB, NEB-TS, Multilevel


 Your calculation uses the libint2 library for the computation of 2-el integrals
 For citations please refer to: http://libint.valeyev.net

 This ORCA versions uses:
   CBLAS   interface :  Fast vector & matrix operations
   LAPACKE interface :  Fast linear algebra routines
   SCALAPACK package :  Parallel linear algebra routines




***************************************
The coordinates will be read from file: 3-NO2-C6H3-N2-v2-source.xyz
***************************************


Your calculation utilizes a Nudged-Elastic-Band implementation
 by V.Asgeirsson, C. Riplinger & H. Jonsson
Please cite in your paper:
 V. Asgeirsson et al., in prep. (2019)
   

----- Orbital basis set information -----
Your calculation utilizes the basis: aug-cc-pVDZ 
    H, B-Ne : Obtained from the ccRepo (grant-hill.group.shef.ac.uk/ccrepo) Feb. 2017
              R. A. Kendall, T. H. Dunning, Jr., R. J. Harrison, J. Chem. Phys. 96, 6796 (1992)
         He : Obtained from the ccRepo (grant-hill.group.shef.ac.uk/ccrepo) Feb. 2017
              D. E. Woon, T. H. Dunning, Jr., J. Chem. Phys. 100, 2975 (1994)
  Li-Be, Na : Obtained from the ccRepo (grant-hill.group.shef.ac.uk/ccrepo) Feb. 2017
              B. P. Prascher, D. E. Woon, K. A. Peterson, T. H. Dunning, Jr., A. K. Wilson, Theor. Chem. Acc. 128, 69 (2011)
         Mg : Obtained from the Peterson Research Group Website (tyr0.chem.wsu.edu/~kipeters) Feb. 2017
              B. P. Prascher, D. E. Woon, K. A. Peterson, T. H. Dunning, Jr., A. K. Wilson, Theor. Chem. Acc. 128, 69 (2011)
      Al-Ar : Obtained from the ccRepo (grant-hill.group.shef.ac.uk/ccrepo) Feb. 2017
              D. E. Woon, T. H. Dunning, Jr., J. Chem. Phys. 98, 1358 (1993)
      Sc-Zn : Obtained from the ccRepo (grant-hill.group.shef.ac.uk/ccrepo) Feb. 2017
              N. B. Balabanov, K. A. Peterson, J. Chem. Phys. 123, 064107 (2005)
              N. B. Balabanov, K. A. Peterson, J. Chem. Phys. 125, 074110 (2006)
      Ga-Kr : Obtained from the ccRepo (grant-hill.group.shef.ac.uk/ccrepo) Feb. 2017
              A. K. Wilson, D. E. Woon, K. A. Peterson, T. H. Dunning, Jr., J. Chem. Phys. 110, 7667 (1999)

================================================================================
                                        WARNINGS
                       Please study these warnings very carefully!
================================================================================


WARNING: Geometry Optimization
  ===> : Switching off AutoStart
         For restart on a previous wavefunction, please use MOREAD

INFO   : the flag for use of LIBINT has been found!

================================================================================
                                       INPUT FILE
================================================================================
NAME = 3-NO2-C6H3-N2-v2-NEB-TS.orc
|  1> ! B3LYP/G aug-cc-pVDZ TightSCF Grid7 NEB-TS
|  2> %scf MaxIter 1000 end
|  3> %geom MaxIter 1000 TolE 1e-8 TolRMSG 5e-7 TolMaxG 1e-6 Convergence tight end
|  4> %neb
|  5>   Nimages 12
|  6>   neb_end_xyzfile "3-NO2-C6H3-N2-v2-final.xyz"
|  7> end
|  8> * xyzfile 0 1 3-NO2-C6H3-N2-v2-source.xyz
|  9> %pal nprocs 42 end
| 10> 
| 11>                          ****END OF INPUT****
================================================================================

Running a Single Point calculation on the reactant structure before starting the actual NEB.

---------------------------------
CARTESIAN COORDINATES (ANGSTROEM)
---------------------------------
  C     -1.928146    0.099675   -1.115546
  C     -0.642509   -0.241074   -0.734603
  C     -0.074361    0.583878    0.268415
  C     -0.595204    1.687964    0.949280
  C     -1.893350    1.932233    0.478629
  C     -2.562115    1.204763   -0.505117
  H     -2.448785   -0.475433   -1.879505
  N      1.238379    0.267540    0.675409
  N      2.272110    0.078850    1.049317
  H     -3.570803    1.488756   -0.800680
  N     -2.660452    3.087681    1.076971
  O     -3.746245    3.366731    0.561560
  O     -2.174013    3.671747    2.029635
  H     -0.109397   -1.083720   -1.175955

----------------------------
CARTESIAN COORDINATES (A.U.)
----------------------------
  NO LB      ZA    FRAG     MASS         X           Y           Z
   0 C     6.0000    0    12.011   -3.643669    0.188359   -2.108077
   1 C     6.0000    0    12.011   -1.214166   -0.455565   -1.388199
   2 C     6.0000    0    12.011   -0.140523    1.103369    0.507231
   3 C     6.0000    0    12.011   -1.124772    3.189790    1.793880
   4 C     6.0000    0    12.011   -3.577912    3.651391    0.904478
   5 C     6.0000    0    12.011   -4.841696    2.276671   -0.954533
   6 H     1.0000    0     1.008   -4.627534   -0.898438   -3.551750
   7 N     7.0000    0    14.007    2.340198    0.505577    1.276338
   8 N     7.0000    0    14.007    4.293665    0.149005    1.982922
   9 H     1.0000    0     1.008   -6.747839    2.813341   -1.513066
  10 N     7.0000    0    14.007   -5.027526    5.834872    2.035180
  11 O     8.0000    0    15.999   -7.079377    6.362199    1.061194
  12 O     8.0000    0    15.999   -4.108289    6.938597    3.835455
  13 H     1.0000    0     1.008   -0.206730   -2.047934   -2.222233

--------------------------------
INTERNAL COORDINATES (ANGSTROEM)
--------------------------------
 C      0   0   0     0.000000000000     0.00000000     0.00000000
 C      1   0   0     1.383506889899     0.00000000     0.00000000
 C      2   1   0     1.417527032221   115.08386013     0.00000000
 C      3   2   1     1.397805824979   130.91921717     0.33115742
 C      4   3   2     1.402270481899   108.60555567   359.68010070
 C      5   4   3     1.394351798275   126.15177286   359.86965586
 H      1   2   3     1.088782619857   120.49494355   180.01901751
 N      3   2   1     1.410319921717   116.53414296   180.28898127
 N      8   3   2     1.115351921379   175.85491524   180.74344766
 H      6   5   4     1.088788340813   119.98522170   180.49796910
 N      5   4   3     1.510470340652   118.06311326   179.92696651
 O     11   5   4     1.233881015879   117.02862111   173.15502565
 O     11   5   4     1.218739774733   118.26439969   352.83422768
 H      2   1   3     1.090436409670   122.22151943   179.96667440

---------------------------
INTERNAL COORDINATES (A.U.)
---------------------------
 C      0   0   0     0.000000000000     0.00000000     0.00000000
 C      1   0   0     2.614449126302     0.00000000     0.00000000
 C      2   1   0     2.678737878328   115.08386013     0.00000000
 C      3   2   1     2.641470197609   130.91921717     0.33115742
 C      4   3   2     2.649907176470   108.60555567   359.68010070
 C      5   4   3     2.634943033080   126.15177286   359.86965586
 H      1   2   3     2.057500970902   120.49494355   180.01901751
 N      3   2   1     2.665118413258   116.53414296   180.28898127
 N      8   3   2     2.107709674350   175.85491524   180.74344766
 H      6   5   4     2.057511781944   119.98522170   180.49796910
 N      5   4   3     2.854375277242   118.06311326   179.92696651
 O     11   5   4     2.331697201856   117.02862111   173.15502565
 O     11   5   4     2.303084402762   118.26439969   352.83422768
 H      2   1   3     2.060626180732   122.22151943   179.96667440

---------------------
BASIS SET INFORMATION
---------------------
There are 4 groups of distinct atoms

 Group   1 Type C   : 18s5p2d contracted to 4s3p2d pattern {8811/311/11}
 Group   2 Type H   : 5s2p contracted to 3s2p pattern {311/11}
 Group   3 Type N   : 18s5p2d contracted to 4s3p2d pattern {8811/311/11}
 Group   4 Type O   : 18s5p2d contracted to 4s3p2d pattern {8811/311/11}

Atom   0C    basis set group =>   1
Atom   1C    basis set group =>   1
Atom   2C    basis set group =>   1
Atom   3C    basis set group =>   1
Atom   4C    basis set group =>   1
Atom   5C    basis set group =>   1
Atom   6H    basis set group =>   2
Atom   7N    basis set group =>   3
Atom   8N    basis set group =>   3
Atom   9H    basis set group =>   2
Atom  10N    basis set group =>   3
Atom  11O    basis set group =>   4
Atom  12O    basis set group =>   4
Atom  13H    basis set group =>   2


           ************************************************************
           *        Program running with 42 parallel MPI-processes    *
           *            working without local directories             *
           ************************************************************
------------------------------------------------------------------------------
                           ORCA GTO INTEGRAL CALCULATION
------------------------------------------------------------------------------

                         BASIS SET STATISTICS AND STARTUP INFO

 # of primitive gaussian shells          ...  296
 # of primitive gaussian functions       ...  506
 # of contracted shells                  ...  114
 # of contracted basis functions         ...  280
 Highest angular momentum                ...    2
 Maximum contraction depth               ...    8
 Integral package used                   ... LIBINT
 Integral threshhold            Thresh   ...  2.500e-11
 Primitive cut-off              TCut     ...  2.500e-12


------------------------------ INTEGRAL EVALUATION ----------------------------


 * One electron integrals 
 Pre-screening matrix                    ... done
 Shell pair data                         ... done (   0.004 sec)



           ************************************************************
           *        Program running with 42 parallel MPI-processes    *
           *            working without local directories             *
           ************************************************************
-------------------------------------------------------------------------------
                                 ORCA SCF
-------------------------------------------------------------------------------

------------
SCF SETTINGS
------------
Hamiltonian:
 Density Functional     Method          .... DFT(GTOs)
 Exchange Functional    Exchange        .... B88
   X-Alpha parameter    XAlpha          ....  0.666667
   Becke's b parameter  XBeta           ....  0.004200
 Correlation Functional Correlation     .... LYP
 LDA part of GGA corr.  LDAOpt          .... VWN-3
 Gradients option       PostSCFGGA      .... off
 Hybrid DFT is turned on
   Fraction HF Exchange ScalHFX         ....  0.200000
   Scaling of DF-GGA-X  ScalDFX         ....  0.720000
   Scaling of DF-GGA-C  ScalDFC         ....  0.810000
   Scaling of DF-LDA-C  ScalLDAC        ....  1.000000
   Perturbative correction              ....  0.000000
   Density functional embedding theory  .... OFF
   NL short-range parameter             ....  4.800000


General Settings:
 Integral files         IntName         .... 3-NO2-C6H3-N2-v2-NEB-TS
 Hartree-Fock type      HFTyp           .... RHF
 Total Charge           Charge          ....    0
 Multiplicity           Mult            ....    1
 Number of Electrons    NEL             ....   76
 Basis Dimension        Dim             ....  280
 Nuclear Repulsion      ENuc            ....    532.6689149334 Eh

Convergence Acceleration:
 DIIS                   CNVDIIS         .... on
   Start iteration      DIISMaxIt       ....    12
   Startup error        DIISStart       ....  0.200000
   # of expansion vecs  DIISMaxEq       ....     5
   Bias factor          DIISBfac        ....   1.050
   Max. coefficient     DIISMaxC        ....  10.000
 Newton-Raphson         CNVNR           .... off
 SOSCF                  CNVSOSCF        .... on
   Start iteration      SOSCFMaxIt      ....   150
   Startup grad/error   SOSCFStart      ....  0.003300
 Level Shifting         CNVShift        .... on
   Level shift para.    LevelShift      ....    0.2500
   Turn off err/grad.   ShiftErr        ....    0.0010
 Zerner damping         CNVZerner       .... off
 Static damping         CNVDamp         .... on
   Fraction old density DampFac         ....    0.7000
   Max. Damping (<1)    DampMax         ....    0.9800
   Min. Damping (>=0)   DampMin         ....    0.0000
   Turn off err/grad.   DampErr         ....    0.1000
 Fernandez-Rico         CNVRico         .... off

SCF Procedure:
 Maximum # iterations   MaxIter         ....  1000
 SCF integral mode      SCFMode         .... Direct
   Integral package                     .... LIBINT
 Reset frequency        DirectResetFreq ....    20
 Integral Threshold     Thresh          ....  2.500e-11 Eh
 Primitive CutOff       TCut            ....  2.500e-12 Eh

Convergence Tolerance:
 Convergence Check Mode ConvCheckMode   .... Total+1el-Energy
 Convergence forced     ConvForced      .... 0
 Energy Change          TolE            ....  1.000e-08 Eh
 1-El. energy change                    ....  1.000e-05 Eh
 Orbital Gradient       TolG            ....  1.000e-05
 Orbital Rotation angle TolX            ....  1.000e-05
 DIIS Error             TolErr          ....  5.000e-07


Diagonalization of the overlap matrix:
Smallest eigenvalue                        ... 3.680e-06
Time for diagonalization                   ...    0.020 sec
Threshold for overlap eigenvalues          ... 1.000e-08
Number of eigenvalues below threshold      ... 0
Time for construction of square roots      ...    0.020 sec
Total time needed                          ...    0.040 sec

-------------------
DFT GRID GENERATION
-------------------

General Integration Accuracy     IntAcc      ...  5.670
Radial Grid Type                 RadialGrid  ... Gauss-Chebyshev
Angular Grid (max. acc.)         AngularGrid ... Lebedev-770
Angular grid pruning method      GridPruning ... 3 (G Style)
Weight generation scheme         WeightScheme... Becke
Basis function cutoff            BFCut       ...    1.0000e-11
Integration weight cutoff        WCut        ...    1.0000e-14
Grids for H and He will be reduced by one unit

# of grid points (after initial pruning)     ... 328834 (   0.0 sec)
# of grid points (after weights+screening)   ... 304208 (   0.3 sec)
nearest neighbour list constructed           ...    0.0 sec
Grid point re-assignment to atoms done       ...    0.1 sec
Grid point division into batches done        ...    7.1 sec
Reduced shell lists constructed in    7.3 sec

Total number of grid points                  ...   304208
Total number of batches                      ...     4760
Average number of points per batch           ...       63
Average number of grid points per atom       ...    21729
Average number of shells per batch           ...    90.18 (79.11%)
Average number of basis functions per batch  ...   221.31 (79.04%)
Average number of large shells per batch     ...    75.61 (83.84%)
Average number of large basis fcns per batch ...   184.65 (83.43%)
Maximum spatial batch extension              ...   5.82, 10.01, 11.57 au
Average spatial batch extension              ...   0.03,  0.03,  0.03 au

Time for grid setup =    9.340 sec

------------------------------
INITIAL GUESS: MODEL POTENTIAL
------------------------------
Loading Hartree-Fock densities                     ... done
Calculating cut-offs                               ... done
Setting up the integral package                    ... done
Initializing the effective Hamiltonian             ... done
Starting the Coulomb interaction                   ... done (   0.0 sec)
Reading the grid                                   ... done
Mapping shells                                     ... done
Starting the XC term evaluation                    ... done (   0.3 sec)
  promolecular density results
     # of electrons  =     75.998530696
     EX              =    -67.749329581
     EC              =     -2.657662738
     EX+EC           =    -70.406992319
Transforming the Hamiltonian                       ... done (   0.0 sec)
Diagonalizing the Hamiltonian                      ... done (   0.0 sec)
Back transforming the eigenvectors                 ... done (   0.0 sec)
Now organizing SCF variables                       ... done
                      ------------------
                      INITIAL GUESS DONE (   9.9 sec)
                      ------------------
--------------
SCF ITERATIONS
--------------
ITER       Energy         Delta-E        Max-DP      RMS-DP      [F,P]     Damp
               ***  Starting incremental Fock matrix formation  ***
  0   -544.6954876429   0.000000000000 0.67481664  0.01209972  0.1871439 0.7000
  1   -544.8363322907  -0.140844647789 0.46380063  0.00877370  0.0723865 0.7000
                               ***Turning on DIIS***
  2   -544.8834698082  -0.047137517491 1.04633918  0.01903719  0.0263419 0.0000
  3   -544.9586872103  -0.075217402077 0.19137575  0.00286170  0.0387985 0.0000
  4   -544.9795513632  -0.020864152963 0.04784685  0.00125775  0.0119536 0.0000
  5   -544.9810986724  -0.001547309134 0.01574945  0.00040480  0.0078776 0.0000
                      *** Initiating the SOSCF procedure ***
                           *** Shutting down DIIS ***
                      *** Re-Reading the Fockian *** 
                      *** Removing any level shift *** 
ITER      Energy       Delta-E        Grad      Rot      Max-DP    RMS-DP
  6   -544.98139321  -0.0002945382  0.001402  0.001402  0.014445  0.000213
               *** Restarting incremental Fock matrix formation ***
  7   -544.98143045  -0.0000372378  0.001011  0.009121  0.020563  0.000243
  8   -544.98144364  -0.0000131966  0.001264  0.007633  0.017972  0.000236
  9   -544.98145313  -0.0000094868  0.000887  0.003574  0.012804  0.000151
 10   -544.98146173  -0.0000085973  0.000307  0.001644  0.005141  0.000124
 11   -544.98146451  -0.0000027829  0.000233  0.001469  0.005901  0.000078
 12   -544.98146553  -0.0000010143  0.000141  0.000314  0.006397  0.000060
 13   -544.98146570  -0.0000001723  0.000158  0.000462  0.010911  0.000108
 14   -544.98146596  -0.0000002620  0.000091  0.000219  0.013618  0.000175
 15   -544.98146597  -0.0000000116  0.000057  0.000272  0.010054  0.000138
 16   -544.98146610  -0.0000001231  0.000008  0.000035  0.025328  0.000237
 17   -544.98146609   0.0000000058  0.000014  0.000039  0.005667  0.000066
 18   -544.98146609  -0.0000000018  0.000003  0.000010  0.008973  0.000103
 19   -544.98146609   0.0000000020  0.000004  0.000008  0.006393  0.000075
                  ***Gradient check signals convergence***
              ***Rediagonalizing the Fockian in SOSCF/NRSCF***

               *****************************************************
               *                     SUCCESS                       *
               *           SCF CONVERGED AFTER  20 CYCLES          *
               *****************************************************


----------------
TOTAL SCF ENERGY
----------------

Total Energy       :         -544.98146609 Eh          -14829.69962 eV

Components:
Nuclear Repulsion  :          532.66891493 Eh           14494.65807 eV
Electronic Energy  :        -1077.65038102 Eh          -29324.35769 eV
One Electron Energy:        -1794.92973193 Eh          -48842.52111 eV
Two Electron Energy:          717.27935091 Eh           19518.16342 eV

Virial components:
Potential Energy   :        -1086.67180207 Eh          -29569.84304 eV
Kinetic Energy     :          541.69033599 Eh           14740.14342 eV
Virial Ratio       :            2.00607567


DFT components:
N(Alpha)           :       37.999999687695 electrons
N(Beta)            :       37.999999687695 electrons
N(Total)           :       75.999999375390 electrons
E(X)               :      -54.282886760083 Eh       
E(C)               :       -3.404341913129 Eh       
E(XC)              :      -57.687228673212 Eh       
DFET-embed. en.    :        0.000000000000 Eh       

---------------
SCF CONVERGENCE
---------------

  Last Energy change         ...    6.6177e-10  Tolerance :   1.0000e-08
  Last MAX-Density change    ...    1.3183e-02  Tolerance :   1.0000e-07
  Last RMS-Density change    ...    1.3172e-04  Tolerance :   5.0000e-09
  Last Orbital Gradient      ...    1.5394e-06  Tolerance :   1.0000e-05
  Last Orbital Rotation      ...    3.3606e-06  Tolerance :   1.0000e-05

             **** THE GBW FILE WAS UPDATED (3-NO2-C6H3-N2-v2-NEB-TS.gbw) ****
             **** DENSITY FILE WAS UPDATED (3-NO2-C6H3-N2-v2-NEB-TS.scfp.tmp) ****
             **** ENERGY FILE WAS UPDATED (3-NO2-C6H3-N2-v2-NEB-TS.en.tmp) ****
----------------
ORBITAL ENERGIES
----------------

  NO   OCC          E(Eh)            E(eV) 
   0   2.0000     -19.175375      -521.7885 
   1   2.0000     -19.172612      -521.7133 
   2   2.0000     -14.562342      -396.2615 
   3   2.0000     -14.556766      -396.1097 
   4   2.0000     -14.521689      -395.1552 
   5   2.0000     -10.298224      -280.2289 
   6   2.0000     -10.256210      -279.0857 
   7   2.0000     -10.255272      -279.0601 
   8   2.0000     -10.241621      -278.6887 
   9   2.0000     -10.236671      -278.5540 
  10   2.0000     -10.192377      -277.3487 
  11   2.0000      -1.222632       -33.2695 
  12   2.0000      -1.216119       -33.0923 
  13   2.0000      -1.050557       -28.5871 
  14   2.0000      -0.935598       -25.4589 
  15   2.0000      -0.865587       -23.5538 
  16   2.0000      -0.810809       -22.0632 
  17   2.0000      -0.726184       -19.7605 
  18   2.0000      -0.711972       -19.3737 
  19   2.0000      -0.635077       -17.2813 
  20   2.0000      -0.577916       -15.7259 
  21   2.0000      -0.567288       -15.4367 
  22   2.0000      -0.562215       -15.2987 
  23   2.0000      -0.550586       -14.9822 
  24   2.0000      -0.525971       -14.3124 
  25   2.0000      -0.525115       -14.2891 
  26   2.0000      -0.519163       -14.1271 
  27   2.0000      -0.507327       -13.8051 
  28   2.0000      -0.473359       -12.8808 
  29   2.0000      -0.436979       -11.8908 
  30   2.0000      -0.416342       -11.3292 
  31   2.0000      -0.410935       -11.1821 
  32   2.0000      -0.314098        -8.5470 
  33   2.0000      -0.307206        -8.3595 
  34   2.0000      -0.304935        -8.2977 
  35   2.0000      -0.293947        -7.9987 
  36   2.0000      -0.288122        -7.8402 
  37   2.0000      -0.227797        -6.1987 
  38   0.0000      -0.133881        -3.6431 
  39   0.0000      -0.118372        -3.2211 
  40   0.0000      -0.086573        -2.3558 
  41   0.0000      -0.033439        -0.9099 
  42   0.0000      -0.029072        -0.7911 
  43   0.0000      -0.008321        -0.2264 
  44   0.0000      -0.003992        -0.1086 
  45   0.0000       0.010335         0.2812 
  46   0.0000       0.028751         0.7823 
  47   0.0000       0.030297         0.8244 
  48   0.0000       0.035458         0.9649 
  49   0.0000       0.048063         1.3079 
  50   0.0000       0.057742         1.5712 
  51   0.0000       0.059963         1.6317 
  52   0.0000       0.072515         1.9732 
  53   0.0000       0.075513         2.0548 
  54   0.0000       0.076079         2.0702 
  55   0.0000       0.083901         2.2831 
  56   0.0000       0.089459         2.4343 
  57   0.0000       0.102957         2.8016 
  58   0.0000       0.104222         2.8360 
  59   0.0000       0.105539         2.8719 
  60   0.0000       0.114346         3.1115 
  61   0.0000       0.115598         3.1456 
  62   0.0000       0.119798         3.2599 
  63   0.0000       0.124062         3.3759 
  64   0.0000       0.127928         3.4811 
  65   0.0000       0.133864         3.6426 
  66   0.0000       0.138900         3.7797 
  67   0.0000       0.157558         4.2874 
  68   0.0000       0.158948         4.3252 
  69   0.0000       0.165343         4.4992 
  70   0.0000       0.170267         4.6332 
  71   0.0000       0.172455         4.6927 
  72   0.0000       0.182346         4.9619 
  73   0.0000       0.183765         5.0005 
  74   0.0000       0.188311         5.1242 
  75   0.0000       0.203854         5.5472 
  76   0.0000       0.212570         5.7843 
  77   0.0000       0.213846         5.8191 
  78   0.0000       0.218822         5.9544 
  79   0.0000       0.223910         6.0929 
  80   0.0000       0.226710         6.1691 
  81   0.0000       0.229780         6.2526 
  82   0.0000       0.238321         6.4850 
  83   0.0000       0.251225         6.8362 
  84   0.0000       0.253651         6.9022 
  85   0.0000       0.264275         7.1913 
  86   0.0000       0.266405         7.2492 
  87   0.0000       0.268311         7.3011 
  88   0.0000       0.270562         7.3624 
  89   0.0000       0.272453         7.4138 
  90   0.0000       0.287916         7.8346 
  91   0.0000       0.291852         7.9417 
  92   0.0000       0.295979         8.0540 
  93   0.0000       0.297529         8.0962 
  94   0.0000       0.307018         8.3544 
  95   0.0000       0.315603         8.5880 
  96   0.0000       0.322239         8.7686 
  97   0.0000       0.327269         8.9054 
  98   0.0000       0.341123         9.2824 
  99   0.0000       0.342502         9.3200 
 100   0.0000       0.351412         9.5624 
 101   0.0000       0.374376        10.1873 
 102   0.0000       0.379320        10.3218 
 103   0.0000       0.384239        10.4557 
 104   0.0000       0.400031        10.8854 
 105   0.0000       0.403752        10.9866 
 106   0.0000       0.420224        11.4349 
 107   0.0000       0.430940        11.7265 
 108   0.0000       0.439572        11.9614 
 109   0.0000       0.444976        12.1084 
 110   0.0000       0.453128        12.3302 
 111   0.0000       0.464930        12.6514 
 112   0.0000       0.467897        12.7321 
 113   0.0000       0.483023        13.1437 
 114   0.0000       0.491741        13.3810 
 115   0.0000       0.496086        13.4992 
 116   0.0000       0.505088        13.7441 
 117   0.0000       0.511514        13.9190 
 118   0.0000       0.531551        14.4642 
 119   0.0000       0.531981        14.4759 
 120   0.0000       0.537725        14.6322 
 121   0.0000       0.547845        14.9076 
 122   0.0000       0.551744        15.0137 
 123   0.0000       0.556303        15.1378 
 124   0.0000       0.577527        15.7153 
 125   0.0000       0.587965        15.9994 
 126   0.0000       0.595515        16.2048 
 127   0.0000       0.603220        16.4145 
 128   0.0000       0.609508        16.5855 
 129   0.0000       0.616441        16.7742 
 130   0.0000       0.633098        17.2275 
 131   0.0000       0.638994        17.3879 
 132   0.0000       0.652852        17.7650 
 133   0.0000       0.661823        18.0091 
 134   0.0000       0.676207        18.4005 
 135   0.0000       0.683260        18.5924 
 136   0.0000       0.686647        18.6846 
 137   0.0000       0.692631        18.8474 
 138   0.0000       0.707327        19.2474 
 139   0.0000       0.713467        19.4144 
 140   0.0000       0.718676        19.5562 
 141   0.0000       0.725139        19.7320 
 142   0.0000       0.733021        19.9465 
 143   0.0000       0.735597        20.0166 
 144   0.0000       0.740976        20.1630 
 145   0.0000       0.757973        20.6255 
 146   0.0000       0.763308        20.7707 
 147   0.0000       0.775879        21.1127 
 148   0.0000       0.791773        21.5452 
 149   0.0000       0.800990        21.7961 
 150   0.0000       0.811222        22.0745 
 151   0.0000       0.824512        22.4361 
 152   0.0000       0.840221        22.8636 
 153   0.0000       0.843168        22.9438 
 154   0.0000       0.862805        23.4781 
 155   0.0000       0.868315        23.6281 
 156   0.0000       0.874968        23.8091 
 157   0.0000       0.889441        24.2029 
 158   0.0000       0.893545        24.3146 
 159   0.0000       0.923081        25.1183 
 160   0.0000       0.948541        25.8111 
 161   0.0000       0.956103        26.0169 
 162   0.0000       0.980725        26.6869 
 163   0.0000       1.001977        27.2652 
 164   0.0000       1.023850        27.8604 
 165   0.0000       1.043991        28.4084 
 166   0.0000       1.058462        28.8022 
 167   0.0000       1.069690        29.1077 
 168   0.0000       1.070585        29.1321 
 169   0.0000       1.084900        29.5216 
 170   0.0000       1.091468        29.7004 
 171   0.0000       1.095997        29.8236 
 172   0.0000       1.100188        29.9376 
 173   0.0000       1.130287        30.7567 
 174   0.0000       1.160476        31.5781 
 175   0.0000       1.166423        31.7400 
 176   0.0000       1.188246        32.3338 
 177   0.0000       1.200298        32.6618 
 178   0.0000       1.217867        33.1398 
 179   0.0000       1.225527        33.3483 
 180   0.0000       1.249150        33.9911 
 181   0.0000       1.260731        34.3062 
 182   0.0000       1.281530        34.8722 
 183   0.0000       1.291716        35.1494 
 184   0.0000       1.302770        35.4502 
 185   0.0000       1.319809        35.9138 
 186   0.0000       1.334515        36.3140 
 187   0.0000       1.349475        36.7211 
 188   0.0000       1.357287        36.9337 
 189   0.0000       1.371995        37.3339 
 190   0.0000       1.381720        37.5985 
 191   0.0000       1.392114        37.8813 
 192   0.0000       1.396833        38.0098 
 193   0.0000       1.403250        38.1844 
 194   0.0000       1.411212        38.4010 
 195   0.0000       1.422218        38.7005 
 196   0.0000       1.445628        39.3375 
 197   0.0000       1.452225        39.5171 
 198   0.0000       1.472418        40.0665 
 199   0.0000       1.511436        41.1283 
 200   0.0000       1.513356        41.1805 
 201   0.0000       1.546740        42.0889 
 202   0.0000       1.554846        42.3095 
 203   0.0000       1.565903        42.6104 
 204   0.0000       1.585463        43.1426 
 205   0.0000       1.594172        43.3796 
 206   0.0000       1.608506        43.7697 
 207   0.0000       1.611918        43.8625 
 208   0.0000       1.645328        44.7716 
 209   0.0000       1.651011        44.9263 
 210   0.0000       1.662861        45.2487 
 211   0.0000       1.699876        46.2560 
 212   0.0000       1.708549        46.4920 
 213   0.0000       1.738344        47.3027 
 214   0.0000       1.761104        47.9221 
 215   0.0000       1.766931        48.0807 
 216   0.0000       1.776478        48.3404 
 217   0.0000       1.809101        49.2281 
 218   0.0000       1.846734        50.2522 
 219   0.0000       1.869495        50.8715 
 220   0.0000       1.881488        51.1979 
 221   0.0000       1.883759        51.2597 
 222   0.0000       1.911345        52.0103 
 223   0.0000       1.929851        52.5139 
 224   0.0000       1.946434        52.9652 
 225   0.0000       1.965762        53.4911 
 226   0.0000       1.972802        53.6827 
 227   0.0000       1.997997        54.3683 
 228   0.0000       2.004431        54.5433 
 229   0.0000       2.008662        54.6585 
 230   0.0000       2.020735        54.9870 
 231   0.0000       2.065357        56.2012 
 232   0.0000       2.078810        56.5673 
 233   0.0000       2.112979        57.4971 
 234   0.0000       2.119856        57.6842 
 235   0.0000       2.184063        59.4314 
 236   0.0000       2.190489        59.6062 
 237   0.0000       2.195811        59.7511 
 238   0.0000       2.201814        59.9144 
 239   0.0000       2.245946        61.1153 
 240   0.0000       2.254463        61.3470 
 241   0.0000       2.271586        61.8130 
 242   0.0000       2.293667        62.4138 
 243   0.0000       2.329201        63.3808 
 244   0.0000       2.354748        64.0760 
 245   0.0000       2.356677        64.1284 
 246   0.0000       2.362925        64.2985 
 247   0.0000       2.382256        64.8245 
 248   0.0000       2.455728        66.8238 
 249   0.0000       2.470401        67.2230 
 250   0.0000       2.485144        67.6242 
 251   0.0000       2.551829        69.4388 
 252   0.0000       2.606904        70.9375 
 253   0.0000       2.673596        72.7522 
 254   0.0000       2.757051        75.0232 
 255   0.0000       2.772111        75.4330 
 256   0.0000       2.810671        76.4823 
 257   0.0000       2.842607        77.3513 
 258   0.0000       2.846440        77.4556 
 259   0.0000       2.931998        79.7837 
 260   0.0000       2.956610        80.4535 
 261   0.0000       3.011381        81.9438 
 262   0.0000       3.105171        84.4960 
 263   0.0000       3.135576        85.3234 
 264   0.0000       3.260605        88.7256 
 265   0.0000       3.291514        89.5667 
 266   0.0000       3.304491        89.9198 
 267   0.0000       3.314015        90.1789 
 268   0.0000       3.330788        90.6353 
 269   0.0000       3.383668        92.0743 
 270   0.0000       3.404897        92.6519 
 271   0.0000       3.415207        92.9325 
 272   0.0000       3.451761        93.9272 
 273   0.0000       3.528577        96.0175 
 274   0.0000       3.578848        97.3854 
 275   0.0000       3.618917        98.4757 
 276   0.0000       3.789345       103.1133 
 277   0.0000       3.812273       103.7372 
 278   0.0000       3.836331       104.3919 
 279   0.0000       4.114074       111.9497 

                    ********************************
                    * MULLIKEN POPULATION ANALYSIS *
                    ********************************

-----------------------
MULLIKEN ATOMIC CHARGES
-----------------------
   0 C :    0.822556
   1 C :    1.031894
   2 C :    1.016403
   3 C :   -1.406667
   4 C :    0.860812
   5 C :    0.949250
   6 H :   -0.693165
   7 N :    0.518884
   8 N :   -0.808784
   9 H :   -0.813255
  10 N :    0.659470
  11 O :   -0.706576
  12 O :   -0.647489
  13 H :   -0.783332
Sum of atomic charges:    0.0000000

--------------------------------
MULLIKEN REDUCED ORBITAL CHARGES
--------------------------------
  0 C s       :     3.107303  s :     3.107303
      pz      :     0.785976  p :     2.254191
      px      :     0.717270
      py      :     0.750946
      dz2     :    -0.019895  d :    -0.184051
      dxz     :    -0.033903
      dyz     :    -0.025720
      dx2y2   :    -0.032057
      dxy     :    -0.072475
  1 C s       :     3.099381  s :     3.099381
      pz      :     0.762623  p :     2.085628
      px      :     0.596625
      py      :     0.726380
      dz2     :    -0.014285  d :    -0.216902
      dxz     :    -0.028730
      dyz     :    -0.059127
      dx2y2   :    -0.051029
      dxy     :    -0.063731
  2 C s       :     3.274353  s :     3.274353
      pz      :     0.628258  p :     1.613837
      px      :     0.402221
      py      :     0.583358
      dz2     :     0.025796  d :     0.095407
      dxz     :    -0.008951
      dyz     :     0.047901
      dx2y2   :     0.009732
      dxy     :     0.020929
  3 C s       :     4.203415  s :     4.203415
      pz      :     0.957221  p :     3.214807
      px      :     1.178973
      py      :     1.078613
      dz2     :     0.002123  d :    -0.011556
      dxz     :    -0.008986
      dyz     :     0.006297
      dx2y2   :     0.014101
      dxy     :    -0.025091
  4 C s       :     3.476914  s :     3.476914
      pz      :     0.614431  p :     1.678916
      px      :     0.370626
      py      :     0.693859
      dz2     :     0.028091  d :    -0.016642
      dxz     :    -0.029832
      dyz     :    -0.011151
      dx2y2   :     0.006766
      dxy     :    -0.010517
  5 C s       :     3.215198  s :     3.215198
      pz      :     0.669865  p :     2.070575
      px      :     0.713775
      py      :     0.686935
      dz2     :    -0.006335  d :    -0.235023
      dxz     :    -0.084236
      dyz     :    -0.016997
      dx2y2   :    -0.037860
      dxy     :    -0.089595
  6 H s       :     1.704835  s :     1.704835
      pz      :     0.006592  p :    -0.011670
      px      :    -0.014684
      py      :    -0.003578
  7 N s       :     3.502434  s :     3.502434
      pz      :     1.060941  p :     2.776314
      px      :     0.573391
      py      :     1.141982
      dz2     :     0.024789  d :     0.202369
      dxz     :     0.063580
      dyz     :     0.010995
      dx2y2   :     0.042522
      dxy     :     0.060483
  8 N s       :     4.567597  s :     4.567597
      pz      :     0.998273  p :     3.172698
      px      :     1.224329
      py      :     0.950096
      dz2     :     0.010110  d :     0.068489
      dxz     :     0.020334
      dyz     :     0.003777
      dx2y2   :     0.010842
      dxy     :     0.023426
  9 H s       :     1.824344  s :     1.824344
      pz      :    -0.006785  p :    -0.011089
      px      :     0.004552
      py      :    -0.008856
 10 N s       :     3.375117  s :     3.375117
      pz      :     0.885606  p :     2.745088
      px      :     0.834105
      py      :     1.025377
      dz2     :     0.050632  d :     0.220325
      dxz     :     0.038066
      dyz     :     0.035691
      dx2y2   :     0.044287
      dxy     :     0.051648
 11 O s       :     4.271887  s :     4.271887
      pz      :     1.593973  p :     4.395657
      px      :     1.155907
      py      :     1.645777
      dz2     :     0.005346  d :     0.039032
      dxz     :     0.011302
      dyz     :     0.003831
      dx2y2   :     0.011196
      dxy     :     0.007357
 12 O s       :     4.278693  s :     4.278693
      pz      :     1.192444  p :     4.327220
      px      :     1.663340
      py      :     1.471436
      dz2     :     0.017002  d :     0.041576
      dxz     :     0.008243
      dyz     :     0.007357
      dx2y2   :     0.002353
      dxy     :     0.006621
 13 H s       :     1.802373  s :     1.802373
      pz      :     0.002446  p :    -0.019041
      px      :    -0.025202
      py      :     0.003714


                     *******************************
                     * LOEWDIN POPULATION ANALYSIS *
                     *******************************

----------------------
LOEWDIN ATOMIC CHARGES
----------------------
   0 C :    0.028162
   1 C :    0.055670
   2 C :   -0.288156
   3 C :    0.098145
   4 C :   -0.196928
   5 C :    0.069193
   6 H :    0.010513
   7 N :    0.019558
   8 N :    0.338973
   9 H :    0.000599
  10 N :   -0.403077
  11 O :    0.113416
  12 O :    0.140464
  13 H :    0.013467

-------------------------------
LOEWDIN REDUCED ORBITAL CHARGES
-------------------------------
  0 C s       :     2.617635  s :     2.617635
      pz      :     0.851354  p :     2.669065
      px      :     0.933641
      py      :     0.884070
      dz2     :     0.085273  d :     0.685137
      dxz     :     0.143643
      dyz     :     0.105698
      dx2y2   :     0.156907
      dxy     :     0.193616
  1 C s       :     2.618907  s :     2.618907
      pz      :     0.836788  p :     2.638654
      px      :     0.939540
      py      :     0.862325
      dz2     :     0.125960  d :     0.686769
      dxz     :     0.158983
      dyz     :     0.097264
      dx2y2   :     0.129297
      dxy     :     0.175265
  2 C s       :     2.595468  s :     2.595468
      pz      :     0.911094  p :     2.627564
      px      :     0.762290
      py      :     0.954179
      dz2     :     0.191957  d :     1.065124
      dxz     :     0.173851
      dyz     :     0.209355
      dx2y2   :     0.270086
      dxy     :     0.219875
  3 C s       :     2.767004  s :     2.767004
      pz      :     0.840260  p :     2.587437
      px      :     0.914834
      py      :     0.832344
      dz2     :     0.069042  d :     0.547413
      dxz     :     0.113864
      dyz     :     0.090297
      dx2y2   :     0.146184
      dxy     :     0.128027
  4 C s       :     2.597541  s :     2.597541
      pz      :     0.870750  p :     2.623385
      px      :     0.951824
      py      :     0.800810
      dz2     :     0.143033  d :     0.976002
      dxz     :     0.237996
      dyz     :     0.145411
      dx2y2   :     0.205784
      dxy     :     0.243778
  5 C s       :     2.619121  s :     2.619121
      pz      :     0.829082  p :     2.614456
      px      :     0.918891
      py      :     0.866483
      dz2     :     0.139908  d :     0.697229
      dxz     :     0.112441
      dyz     :     0.145710
      dx2y2   :     0.158574
      dxy     :     0.140597
  6 H s       :     0.734315  s :     0.734315
      pz      :     0.100014  p :     0.255172
      px      :     0.073356
      py      :     0.081802
  7 N s       :     2.937702  s :     2.937702
      pz      :     1.030344  p :     3.291277
      px      :     1.252222
      py      :     1.008711
      dz2     :     0.096239  d :     0.751463
      dxz     :     0.217611
      dyz     :     0.036935
      dx2y2   :     0.200845
      dxy     :     0.199832
  8 N s       :     3.244508  s :     3.244508
      pz      :     0.952890  p :     3.133925
      px      :     1.282833
      py      :     0.898202
      dz2     :     0.036820  d :     0.282594
      dxz     :     0.083161
      dyz     :     0.011331
      dx2y2   :     0.086127
      dxy     :     0.065155
  9 H s       :     0.719874  s :     0.719874
      pz      :     0.070200  p :     0.279527
      px      :     0.125422
      py      :     0.083904
 10 N s       :     2.813106  s :     2.813106
      pz      :     1.048014  p :     3.177473
      px      :     1.082978
      py      :     1.046481
      dz2     :     0.292772  d :     1.412499
      dxz     :     0.336175
      dyz     :     0.233069
      dx2y2   :     0.261957
      dxy     :     0.288526
 11 O s       :     3.387040  s :     3.387040
      pz      :     1.472210  p :     4.279252
      px      :     1.295487
      py      :     1.511556
      dz2     :     0.032858  d :     0.220292
      dxz     :     0.061311
      dyz     :     0.016326
      dx2y2   :     0.055088
      dxy     :     0.054709
 12 O s       :     3.388722  s :     3.388722
      pz      :     1.283898  p :     4.246108
      px      :     1.535774
      py      :     1.426435
      dz2     :     0.057740  d :     0.224706
      dxz     :     0.051340
      dyz     :     0.062821
      dx2y2   :     0.026274
      dxy     :     0.026531
 13 H s       :     0.734105  s :     0.734105
      pz      :     0.074415  p :     0.252428
      px      :     0.073855
      py      :     0.104158


                      *****************************
                      * MAYER POPULATION ANALYSIS *
                      *****************************

  NA   - Mulliken gross atomic population
  ZA   - Total nuclear charge
  QA   - Mulliken gross atomic charge
  VA   - Mayer's total valence
  BVA  - Mayer's bonded valence
  FA   - Mayer's free valence

  ATOM       NA         ZA         QA         VA         BVA        FA
  0 C      5.1774     6.0000     0.8226     2.7500     2.7500    -0.0000
  1 C      4.9681     6.0000     1.0319     2.0746     2.0746    -0.0000
  2 C      4.9836     6.0000     1.0164     2.8415     2.8415     0.0000
  3 C      7.4067     6.0000    -1.4067     1.7226     1.7226     0.0000
  4 C      5.1392     6.0000     0.8608     2.7520     2.7520     0.0000
  5 C      5.0507     6.0000     0.9493     2.1280     2.1280     0.0000
  6 H      1.6932     1.0000    -0.6932     0.3184     0.3184    -0.0000
  7 N      6.4811     7.0000     0.5189     1.9398     1.9398     0.0000
  8 N      7.8088     7.0000    -0.8088     1.1271     1.1271    -0.0000
  9 H      1.8133     1.0000    -0.8133     0.1602     0.1602     0.0000
 10 N      6.3405     7.0000     0.6595     2.2030     2.2030     0.0000
 11 O      8.7066     8.0000    -0.7066     1.2592     1.2592     0.0000
 12 O      8.6475     8.0000    -0.6475     1.3081     1.3081     0.0000
 13 H      1.7833     1.0000    -0.7833     0.1951     0.1951    -0.0000

  Mayer bond orders larger than 0.1
B(  0-C ,  1-C ) :   1.7085 B(  0-C ,  2-C ) :  -0.2457 B(  0-C ,  3-C ) :  -0.1099 
B(  0-C ,  4-C ) :  -0.1789 B(  0-C ,  5-C ) :   1.4602 B(  0-C ,  6-H ) :  -0.2173 
B(  0-C ,  9-H ) :   0.2311 B(  1-C ,  2-C ) :   0.8020 B(  1-C ,  6-H ) :   0.1717 
B(  1-C ,  7-N ) :  -0.1235 B(  1-C ,  8-N ) :   0.1467 B(  1-C , 13-H ) :  -0.5434 
B(  2-C ,  3-C ) :   1.0568 B(  2-C ,  4-C ) :   0.3312 B(  2-C ,  6-H ) :  -0.1662 
B(  2-C ,  7-N ) :   0.7885 B(  2-C ,  8-N ) :  -0.4945 B(  2-C , 13-H ) :   0.7291 
B(  3-C ,  4-C ) :   0.7250 B(  3-C , 10-N ) :  -0.1453 B(  3-C , 13-H ) :   0.1318 
B(  4-C ,  5-C ) :   0.6906 B(  4-C ,  9-H ) :   0.2491 B(  4-C , 10-N ) :   0.5633 
B(  4-C , 11-O ) :   0.2182 B(  4-C , 12-O ) :   0.1112 B(  5-C ,  6-H ) :   0.4993 
B(  5-C ,  9-H ) :  -0.3167 B(  5-C , 11-O ) :  -0.1403 B(  7-N ,  8-N ) :   1.2902 
B(  7-N , 13-H ) :  -0.1323 B( 10-N , 11-O ) :   0.8608 B( 10-N , 12-O ) :   0.9379 
B( 11-O , 12-O ) :   0.3002 

-------
TIMINGS
-------

Total SCF time: 0 days 0 hours 0 min 59 sec 

Total time                  ....      59.018 sec
Sum of individual times     ....      58.276 sec  ( 98.7%)

Fock matrix formation       ....      46.836 sec  ( 79.4%)
  XC integration            ....       7.169 sec  ( 15.3% of F)
    Basis function eval.    ....       1.783 sec  ( 24.9% of XC)
    Density eval.           ....       1.803 sec  ( 25.2% of XC)
    XC-Functional eval.     ....       0.211 sec  (  2.9% of XC)
    XC-Potential eval.      ....       2.208 sec  ( 30.8% of XC)
Diagonalization             ....       0.216 sec  (  0.4%)
Density matrix formation    ....       0.234 sec  (  0.4%)
Population analysis         ....       0.040 sec  (  0.1%)
Initial guess               ....       0.558 sec  (  0.9%)
Orbital Transformation      ....       0.000 sec  (  0.0%)
Orbital Orthonormalization  ....       0.000 sec  (  0.0%)
DIIS solution               ....       0.594 sec  (  1.0%)
SOSCF solution              ....       0.458 sec  (  0.8%)
Grid generation             ....       9.340 sec  ( 15.8%)

-------------------------   --------------------
FINAL SINGLE POINT ENERGY      -544.981466088573
-------------------------   --------------------



------------------------------------------------------------------------------- 
                         Nudged Elastic Band Calculation                       
------------------------------------------------------------------------------- 

Number of images (incl. end points)     ....  14
Number of intermediate images           ....  12
Number of optimized images              ....  12
Optimization of end points before NEB   ....  NO
Number of atoms                         ....  14
Number of (active) degrees of freedom   ....  42
Constrained atoms                       ....  None

-----------------------------------------
  REACTANT (ANGSTROEM)
-----------------------------------------
C     -1.928146     0.099675    -1.115546 
C     -0.642509    -0.241074    -0.734603 
C     -0.074361     0.583878     0.268415 
C     -0.595204     1.687964     0.949280 
C     -1.893350     1.932233     0.478629 
C     -2.562115     1.204763    -0.505117 
H     -2.448785    -0.475433    -1.879505 
N      1.238379     0.267540     0.675409 
N      2.272110     0.078850     1.049317 
H     -3.570803     1.488756    -0.800680 
N     -2.660452     3.087681     1.076971 
O     -3.746245     3.366731     0.561560 
O     -2.174013     3.671747     2.029635 
H     -0.109397    -1.083720    -1.175955 

-----------------------------------------
  PRODUCT (ANGSTROEM)
-----------------------------------------
C     -2.006311     0.221333    -1.072818 
C     -0.693070    -0.053818    -0.610126 
C     -0.362873     0.860643     0.364309 
C     -0.974876     1.826166     0.879098 
C     -2.259071     2.119648     0.447902 
C     -2.774131     1.280160    -0.560008 
H     -2.427750    -0.414546    -1.853051 
N      2.685517    -0.751571     0.589717 
N      3.566030    -0.564022     1.228783 
H     -3.778926     1.466937    -0.934770 
N     -3.056771     3.233653     0.992747 
O     -4.186386     3.398055     0.534942 
O     -2.539058     3.915938     1.868154 
H     -0.087225    -0.868996    -0.997071 



----------------------
NEB settings
----------------------
Method type                             ....  climbing image
Threshold for climbing image            ....  2.00e-02 Eh/Bohr 
Free endpoints                          ....  off 
Tangent type                            ....  improved 
Number of intermediate images           ....  12 
Number of images free to move           ....  12 
Spring type for image distribution      ....  distance between adjacent images 
Spring constant                         ....  1.00e-01 Eh/Bohr^2 
Spring force perp. to the path          ....  tan 
Generation of initial path              ....  image dependent pair potential 
Initial path via TS guess               ....  off 

Minimization of RMSD: Rotation          ....  always 
Minimization of RMSD: Translation type  ....  centroid 
Center fixed to origin                  ....  true 

Reparametrization of the path           ....  on reset 
               Every 0 iterations
               Type of interpolation    ....  linear
Convergence thresholds:
Convergence monitored for               ....  all images
Scaling factor                          ....  100.00

Convergence parameters for regular images:
               Max(|Fp|)                ....  1.00e-01 Eh/Bohr
               RMS(Fp)                  ....  5.00e-02 Eh/Bohr

Convergence parameters for climbing image:
               Max(|F|)                 ....  1.00e-03 Eh/Bohr
               RMS(F)                   ....  5.00e-04 Eh/Bohr
Optimization method:
Method                                  ....  L-BFGS (global)
Max. iterations                         ....  1000 
Step size                               ....  1.00 
Maximum allowed step size               ....  0.10 Bohr
Turn on L-BFGS                          ....  0.0000 Eh/Bohr

LBFGS parameters: 
               Memory                   ....  7 
Generation of  the initial path:
Minimize RMSD between reactant and product configurations     .... done
       RMSD before minimization         ....  1.3016 Bohr
       RMSD after minimization          ....  1.3000 Bohr
Performing linear interpolation         ....  done
Interpolation using                     ....  IDPP (Image Dependent Pair Potential)
IDPP-Settings:
       Convergence tolerance            ....  0.0100 1/Ang.^3
       Max. numer of iterations         ....    7000
       Spring constant                  ....  1.0000 1/Ang.^4
       Time step                        ....  0.0100 fs
       Max. movement per iteration      ....  0.0500 Ang.
       Full print                       ....  false 
IDPP successfuly converged in 76 iterations
Displacement along initial path:              4.8644 Bohr
Writing initial trajectory to file      ....  3-NO2-C6H3-N2-v2-NEB-TS_initial_path.trj



----------------------
NEB OPTIMIZATION      
----------------------

Following output files will be written:
Energy profile during opt. written to    ....  3-NO2-C6H3-N2-v2-NEB-TS.interp
Optimization log-file                    ....  3-NO2-C6H3-N2-v2-NEB-TS.log
Current trajectory will be written to    ....  3-NO2-C6H3-N2-v2-NEB-TS_MEP.trj
       and to allxyz file                ....  3-NO2-C6H3-N2-v2-NEB-TS_MEP.allxyz
       and individual images to xyz file ....  3-NO2-C6H3-N2-v2-NEB-TS_im{NIm}.xyz
Trajectory history will be written to    ....  3-NO2-C6H3-N2-v2-NEB-TS_MEP_ALL.trj
Converged CI will be written to          ....  3-NO2-C6H3-N2-v2-NEB-TS_CI-NEB_converged.xyz
Converged TS will be written to          ....  3-NO2-C6H3-N2-v2-NEB-TS.xyz

Single point energy and gradient calculation of reactant and
product configurations (have to be performed only once)
Properties of fixed NEB end points:
               Reactant:
                         E               ....   -544.981466 Eh
                         RMS(F)          ....      0.000190 Eh/Bohr
                         MAX(|F|)        ....      0.000819 Eh/Bohr
               Product:
                         E               ....   -545.015408 Eh
                         RMS(F)          ....      0.000251 Eh/Bohr
                         MAX(|F|)        ....      0.000884 Eh/Bohr



Starting iterations:

Optim.  Iteration  HEI  E(HEI)-E(0)  max(|Fp|)   RMS(Fp)    dS
Switch-on CI threshold               0.020000 
List of participating nodes    ...  3-NO2-C6H3-N2-v2-NEB-TS.hostnames
LBFGS(G)     0      2    0.007595    0.073362   0.023494  4.8644       
LBFGS(G)     1      2    0.007588    0.073309   0.023463  4.8644       
LBFGS(G)     2      1    0.003772    0.027842   0.010517  4.8805       
LBFGS(G)     3      1    0.003785    0.038744   0.011031  4.8871       
LBFGS(G)     4      1    0.003673    0.014386   0.005214  4.8872       

Image  1 will be converted to a climbing image in the next iteration (max(|Fp|) < 0.0200) 

Optim.  Iteration  CI   E(CI)-E(0)   max(|Fp|)   RMS(Fp)    dS     max(|FCI|)   RMS(FCI)
Convergence thresholds               0.100000   0.050000            0.001000    0.000500 
LBFGS(G)     5      1    0.003649    0.015624   0.005395  4.8898    0.011661    0.003795       
LBFGS(G)     6      1    0.003661    0.012695   0.004373  4.8930    0.011181    0.003606       
LBFGS(G)     7      1    0.003892    0.008578   0.003284  4.9424    0.012315    0.004244       
LBFGS(G)     8      1    0.004374    0.017957   0.003958  4.9697    0.034863    0.013681       
LBFGS(G)     9      1    0.003976    0.009967   0.002761  4.9828    0.004545    0.002010       
LBFGS(G)    10      1    0.004032    0.009172   0.003000  4.9915    0.013178    0.005152       
LBFGS(G)    11      1    0.004176    0.014482   0.004176  5.0212    0.025694    0.010454       
LBFGS(G)    12      1    0.004058    0.015765   0.004753  5.1089    0.038896    0.014726       
LBFGS(G)    13      1    0.009699    0.048797   0.010808  5.2125    0.152424    0.060564       
LBFGS(G)    14      1    0.003218    0.008717   0.003245  5.1554    0.007163    0.003679       
LBFGS(G)    15      1    0.003214    0.007375   0.002743  5.1555    0.006147    0.003430       
LBFGS(G)    16      1    0.003270    0.006050   0.002386  5.1812    0.016206    0.005317       
LBFGS(G)    17      1    0.004357    0.010586   0.003518  5.2265    0.055762    0.021365       
LBFGS(G)    18      1    0.003429    0.007118   0.002963  5.2436    0.007004    0.003187       
LBFGS(G)    19      1    0.003524    0.007729   0.002852  5.2663    0.016560    0.005727       
LBFGS(G)    20      1    0.003783    0.010564   0.003160  5.3491    0.027792    0.010771       
LBFGS(G)    21      1    0.003375    0.027945   0.007150  5.5268    0.003576    0.002395       
LBFGS(G)    22      1    0.003342    0.009097   0.003022  5.5853    0.012928    0.005322       
LBFGS(G)    23      1    0.003230    0.007626   0.003103  5.6151    0.006000    0.002706       
LBFGS(G)    24      1    0.003069    0.024180   0.006058  5.8164    0.023878    0.009041       
LBFGS(G)    25      1    0.003051    0.014908   0.004205  6.0689    0.035814    0.013786       
LBFGS(G)    26      1    0.003289    0.014721   0.003787  6.0752    0.044703    0.017052       
LBFGS(G)    27      1    0.002701    0.006255   0.002256  6.0666    0.016654    0.005661       
LBFGS(G)    28      1    0.002715    0.007388   0.002033  6.0571    0.010213    0.003790       
LBFGS(G)    29      1    0.003132    0.009899   0.002391  6.0426    0.027803    0.010927       
LBFGS(G)    30      1    0.002973    0.007028   0.002160  6.0325    0.004653    0.002501       
LBFGS(G)    31      1    0.003003    0.010732   0.003396  6.0370    0.009910    0.004384       
LBFGS(G)    32      1    0.002829    0.006906   0.002258  6.0758    0.004294    0.002597       
LBFGS(G)    33      1    0.002728    0.006704   0.001942  6.0778    0.009039    0.003759       
LBFGS(G)    34      1    0.002971    0.029534   0.006586  6.0202    0.022296    0.008596       
LBFGS(G)    35      1    0.002773    0.004366   0.001503  6.0202    0.008708    0.003024       
LBFGS(G)    36      1    0.002765    0.005131   0.001383  6.0119    0.002877    0.001746       
LBFGS(G)    37      1    0.002897    0.008349   0.002122  5.9786    0.015032    0.005910       
LBFGS(G)    38      1    0.002965    0.006383   0.001665  5.9505    0.013703    0.005581       
LBFGS(G)    39      1    0.003120    0.021952   0.004737  5.9308    0.016205    0.006781       
LBFGS(G)    40      1    0.003005    0.004076   0.001241  5.9264    0.007698    0.003145       
LBFGS(G)    41      1    0.002975    0.003696   0.001082  5.9235    0.001709    0.001065       
LBFGS(G)    42      1    0.002983    0.003559   0.001024  5.9158    0.008655    0.003505       
LBFGS(G)    43      1    0.002943    0.004225   0.001122  5.9036    0.005041    0.002140       
LBFGS(G)    44      1    0.002930    0.015423   0.003296  5.8933    0.003135    0.001354       
LBFGS(G)    45      1    0.002926    0.007025   0.001479  5.8918    0.001169    0.000673       
LBFGS(G)    46      1    0.002925    0.001773   0.000730  5.8886    0.001402    0.000672       
LBFGS(G)    47      1    0.002925    0.003047   0.000936  5.8854    0.001587    0.000673       
LBFGS(G)    48      1    0.002930    0.002771   0.000835  5.8829    0.002411    0.000972       
LBFGS(G)    49      1    0.002961    0.011736   0.002182  5.8892    0.009787    0.003808       
LBFGS(G)    50      1    0.003107    0.027142   0.004242  5.9401    0.020275    0.008163       
LBFGS(G)    51      1    0.002942    0.006457   0.001527  5.9049    0.008289    0.003238       
LBFGS(G)    52      1    0.002922    0.008138   0.001335  5.9049    0.005523    0.002139       
LBFGS(G)    53      1    0.002915    0.004045   0.000899  5.9048    0.004193    0.001589       
LBFGS(G)    54      1    0.002902    0.002390   0.000612  5.9048    0.001034    0.000506       
LBFGS(G)    55      1    0.002898    0.005404   0.000818  5.9051    0.002187    0.000872       
LBFGS(G)    56      1    0.002904    0.019982   0.003445  5.9249    0.001333    0.000919       
LBFGS(G)    57      1    0.002898    0.002889   0.000830  5.9195    0.001540    0.000914       
LBFGS(G)    58      1    0.002895    0.001885   0.000664  5.9199    0.000751    0.000586       
LBFGS(G)    59      1    0.002893    0.005662   0.000870  5.9221    0.002615    0.001151       
LBFGS(G)    60      1    0.002890    0.002478   0.000730  5.9232    0.001701    0.000834       
LBFGS(G)    61      1    0.002888    0.003523   0.000900  5.9270    0.000972    0.000670       
LBFGS(G)    62      1    0.002885    0.001532   0.000551  5.9281    0.000593    0.000494       

                                .--------------------.
          ----------------------| CI-NEB convergence |-------------------------
          Item                value                   Tolerance       Converged
          ---------------------------------------------------------------------
          RMS(Fp)             0.0005507512            0.0500000000      YES
          MAX(|Fp|)           0.0015318188            0.1000000000      YES
          RMS(FCI)            0.0004943769            0.0005000000      YES
          MAX(|FCI|)          0.0005929421            0.0010000000      YES
          ---------------------------------------------------------------------

The elastic band and climbing image have converged succesfully to a MEP in 62 iterations!


                    *********************H U R R A Y*********************
                    ***        THE NEB OPTIMIZATION HAS CONVERGED     ***
                    *****************************************************



---------------------------------------------------------------
                         PATH SUMMARY              
---------------------------------------------------------------
All forces in Eh/Bohr.

Image Dist.(Ang.)    E(Eh)   dE(kcal/mol)  max(|Fp|)  RMS(Fp)
  0     0.000    -544.98147      0.00       0.00075   0.00032
  1     0.269    -544.97858      1.81       0.00057   0.00049 <= CI
  2     0.511    -544.98572     -2.67       0.00142   0.00106
  3     0.761    -544.99693     -9.70       0.00131   0.00080
  4     1.011    -545.00508    -14.82       0.00107   0.00064
  5     1.251    -545.00983    -17.80       0.00078   0.00056
  6     1.491    -545.01256    -19.51       0.00064   0.00039
  7     1.747    -545.01389    -20.35       0.00079   0.00045
  8     1.986    -545.01433    -20.62       0.00106   0.00054
  9     2.224    -545.01463    -20.81       0.00081   0.00048
 10     2.462    -545.01492    -20.99       0.00074   0.00034
 11     2.684    -545.01517    -21.15       0.00038   0.00020
 12     2.911    -545.01535    -21.26       0.00013   0.00008
 13     3.137    -545.01541    -21.30       0.00088   0.00043

Straight line distance between images along the path:
        D( 0- 1) =   0.2692 Ang.
        D( 1- 2) =   0.2415 Ang.
        D( 2- 3) =   0.2500 Ang.
        D( 3- 4) =   0.2507 Ang.
        D( 4- 5) =   0.2394 Ang.
        D( 5- 6) =   0.2400 Ang.
        D( 6- 7) =   0.2567 Ang.
        D( 7- 8) =   0.2386 Ang.
        D( 8- 9) =   0.2375 Ang.
        D( 9-10) =   0.2388 Ang.
        D(10-11) =   0.2220 Ang.
        D(11-12) =   0.2268 Ang.
        D(12-13) =   0.2259 Ang.

---------------------------------------------------------------
               INFORMATION ABOUT SADDLE POINT     
---------------------------------------------------------------

Climbing image                            ....  1 
Energy                                    ....  -544.97858071 Eh
Max. abs. force                           ....  5.9294e-04 Eh/Bohr

-----------------------------------------
  SADDLE POINT (ANGSTROEM)
-----------------------------------------
C     -0.607647    -1.015043    -1.194129 
C      0.687087    -1.367348    -0.815907 
C      1.210670    -0.537528     0.174336 
C      0.738242     0.523215     0.845362 
C     -0.557697     0.808496     0.405370 
C     -1.236797     0.085317    -0.581903 
H     -1.129266    -1.586967    -1.959480 
N      2.698607    -0.924953     0.614833 
N      3.686613    -0.927675     1.123990 
H     -2.245474     0.374618    -0.871003 
N     -1.297634     1.968619     1.020862 
O     -2.396003     2.253488     0.537383 
O     -0.774472     2.552659     1.955735 
H      1.223773    -2.206899    -1.255450 

-----------------------------------------
  FORCES (Eh/Bohr)
-----------------------------------------
C     -0.000290     0.000196    -0.000015 
C      0.000088     0.000207     0.000238 
C      0.000377     0.000001     0.000223 
C     -0.000065    -0.000210    -0.000204 
C     -0.000434     0.000505     0.000191 
C     -0.000222     0.000259     0.000097 
H     -0.000128    -0.000202    -0.000271 
N      0.000378     0.000092     0.000284 
N     -0.000593     0.000090    -0.000193 
H      0.000148    -0.000049     0.000033 
N      0.000358    -0.000554    -0.000236 
O      0.000380     0.000099     0.000489 
O     -0.000320     0.000032    -0.000384 
H      0.000322    -0.000465    -0.000252 

-----------------------------------------
  UNIT TANGENT
-----------------------------------------
C     -0.102558     0.020166    -0.049600 
C     -0.070025    -0.018260    -0.058172 
C     -0.283301     0.025018    -0.113177 
C     -0.082791    -0.142142    -0.145894 
C     -0.072259     0.003763    -0.033081 
C     -0.089236     0.002190    -0.048278 
H     -0.097837     0.025159    -0.053051 
N      0.485065    -0.318907     0.000406 
N      0.290969     0.344359     0.465642 
H     -0.085958     0.017369    -0.027963 
N      0.025209     0.009555     0.019580 
O     -0.009509     0.031936     0.116963 
O      0.140573     0.003552    -0.031211 
H     -0.048343    -0.003760    -0.042166 
 => Unit tangent is an approximation to the TS mode at the saddle point

Next a TS optimization is performed on the CI from the NEB run.

         *************************************************************
         *                       TS OPTIMIZATION                     *
         *************************************************************

Geometry optimization settings:
Update method            Update   .... Bofill
Choice of coordinates    CoordSys .... Z-matrix Internals
Initial Hessian          InHess   .... Read

Convergence Tolerances:
Energy Change            TolE     ....  1.0000e-06 Eh
Max. Gradient            TolMAXG  ....  1.0000e-04 Eh/bohr
RMS Gradient             TolRMSG  ....  3.0000e-05 Eh/bohr
Max. Displacement        TolMAXD  ....  1.0000e-03 bohr
RMS Displacement         TolRMSD  ....  6.0000e-04 bohr

------------------------------------------------------------------------------
                        ORCA OPTIMIZATION COORDINATE SETUP
------------------------------------------------------------------------------

The optimization will be done in new redundant internal coordinates
Making redundant internal coordinates   ...  (new redundants) done
Following TS mode number                ...     0
TS-active-atoms for coordinate setup... 7 8 
Evaluating the initial hessian          ... (Reading Exact Hessian)...  
InHessName: 3-NO2-C6H3-N2-v2-NEB-TS.appr.hess	The file <3-NO2-C6H3-N2-v2-NEB-TS.appr.hess> is opened as a .hess file
done
done
Diagonalizing the Hessian               .... done
Dimension of the hessian                .... 63
Lowest eigenvalues of the non projected Hessian:
 -0.015123089 -0.000000000 -0.000000000 -0.000000000 -0.000000000
done
Evaluating the coordinates              ...  done
Calculating the B-matrix                .... done
Calculating the G-matrix                .... done
Diagonalizing the G-matrix              .... done
The first mode is                       ....   27
The number of degrees of freedom        ....   36

    -----------------------------------------------------------------
                    Redundant Internal Coordinates


    -----------------------------------------------------------------
         Definition                    Initial Value    d2E/dq (diagonal element)
    -----------------------------------------------------------------
      1. B(C   1,C   0)                  1.3941         0.693342   
      2. B(C   2,C   1)                  1.3940         0.376609   
      3. B(C   3,C   2)                  1.3411         0.378769   
      4. B(C   4,C   3)                  1.3980         0.566507   
      5. B(C   5,C   4)                  1.3996         0.566616   
      6. B(C   5,C   0)                  1.4076         0.557950   
      7. B(H   6,C   0)                  1.0886         0.364434   
      8. B(N   7,C   1)                  2.5078         0.267054   
      9. B(N   7,C   2)                  1.5994         0.118881   
     10. B(N   7,C   3)                  2.4481         0.137580   
     11. B(N   8,N   7)                  1.1115         0.653603   
     12. B(N   8,C   2)                  2.6804         0.287094   
     13. B(H   9,C   5)                  1.0884         0.366341   
     14. B(N  10,C   4)                  1.5074         0.359464   
     15. B(O  11,N  10)                  1.2334         0.887722   
     16. B(O  12,N  10)                  1.2202         0.941205   
     17. B(H  13,C   1)                  1.0891         0.359514   
     18. A(C   5,C   0,H   6)          120.1543         0.225840   
     19. A(C   1,C   0,H   6)          120.1992         0.216621   
     20. A(C   1,C   0,C   5)          119.6465         0.162598   
     21. A(C   0,C   1,H  13)          122.8871         0.216617   
     22. A(C   0,C   1,C   2)          113.0234         0.148504   
     23. A(C   2,C   1,H  13)          124.0895         0.210526   
     24. A(C   3,C   2,N   7)          112.4264         0.124132   
     25. A(C   1,C   2,N   7)          113.6319         0.240549   
     26. A(C   1,C   2,C   3)          133.9416         0.180542   
     27. A(C   2,C   3,C   4)          109.2972         0.254453   
     28. A(C   3,C   4,N  10)          118.9192         0.376840   
     29. A(C   5,C   4,N  10)          116.5845         0.371940   
     30. A(C   3,C   4,C   5)          124.4962         0.170523   
     31. A(C   4,C   5,H   9)          119.9786         0.220073   
     32. A(C   0,C   5,H   9)          120.4278         0.216007   
     33. A(C   0,C   5,C   4)          119.5936         0.170514   
     34. A(C   2,N   7,N   8)          162.4988         0.438354   
     35. A(O  11,N  10,O  12)          124.8620         0.308990   
     36. A(C   4,N  10,O  12)          118.0840         0.316736   
     37. A(C   4,N  10,O  11)          117.0537         0.314108   
     38. D(H  13,C   1,C   0,H   6)      0.0361         0.011682   
     39. D(H  13,C   1,C   0,C   5)   -179.9034         0.010704   
     40. D(C   2,C   1,C   0,C   5)      0.1364         0.009900   
     41. D(C   2,C   1,C   0,H   6)   -179.9242         0.008975   
     42. D(N   7,C   2,C   1,C   0)   -179.7470         0.019801   
     43. D(N   7,C   2,C   1,H  13)      0.2933         0.021494   
     44. D(C   3,C   2,C   1,C   0)      0.2619         0.009017   
     45. D(C   3,C   2,C   1,H  13)   -179.6978         0.008944   
     46. D(C   4,C   3,C   2,N   7)    179.6566         0.028598   
     47. D(C   4,C   3,C   2,C   1)     -0.3522         0.007237   
     48. D(N  10,C   4,C   3,C   2)    179.9969         0.012827   
     49. D(C   5,C   4,C   3,C   2)      0.0575         0.008373   
     50. D(H   9,C   5,C   0,C   1)    179.6921         0.010837   
     51. D(C   4,C   5,C   0,H   6)    179.6940         0.009050   
     52. D(C   4,C   5,C   0,C   1)     -0.3665         0.009181   
     53. D(H   9,C   5,C   4,N  10)      0.2707         0.011261   
     54. D(H   9,C   5,C   4,C   3)   -179.7887         0.008760   
     55. D(C   0,C   5,C   4,N  10)   -179.6710         0.011923   
     56. D(C   0,C   5,C   4,C   3)      0.2697         0.009036   
     57. D(H   9,C   5,C   0,H   6)     -0.2473         0.010969   
     58. D(N   8,N   7,C   2,C   3)     -0.4148         0.153371   
     59. D(N   8,N   7,C   2,C   1)    179.5921         0.088408   
     60. D(O  12,N  10,C   4,C   5)    174.3580         0.012740   
     61. D(O  12,N  10,C   4,C   3)     -5.5861         0.011053   
     62. D(O  11,N  10,C   4,C   5)     -5.4729         0.009111   
     63. D(O  11,N  10,C   4,C   3)    174.5830         0.010463   
    -----------------------------------------------------------------

Number of atoms                         .... 14
Number of degrees of freedom            .... 63

         *************************************************************
         *                GEOMETRY OPTIMIZATION CYCLE   1            *
         *************************************************************


           ************************************************************
           *        Program running with 42 parallel MPI-processes    *
           *            working without local directories             *
           ************************************************************
------------------------------------------------------------------------------
                           ORCA GTO INTEGRAL CALCULATION
------------------------------------------------------------------------------

                         BASIS SET STATISTICS AND STARTUP INFO

 # of primitive gaussian shells          ...  296
 # of primitive gaussian functions       ...  506
 # of contracted shells                  ...  114
 # of contracted basis functions         ...  280
 Highest angular momentum                ...    2
 Maximum contraction depth               ...    8
 Integral package used                   ... LIBINT
 Integral threshhold            Thresh   ...  2.500e-11
 Primitive cut-off              TCut     ...  2.500e-12


------------------------------ INTEGRAL EVALUATION ----------------------------


 * One electron integrals 
 Pre-screening matrix                    ... done
 Shell pair data                         ... done (   0.004 sec)



           ************************************************************
           *        Program running with 42 parallel MPI-processes    *
           *            working without local directories             *
           ************************************************************
-------------------------------------------------------------------------------
                                 ORCA SCF
-------------------------------------------------------------------------------

------------
SCF SETTINGS
------------
Hamiltonian:
 Density Functional     Method          .... DFT(GTOs)
 Exchange Functional    Exchange        .... B88
   X-Alpha parameter    XAlpha          ....  0.666667
   Becke's b parameter  XBeta           ....  0.004200
 Correlation Functional Correlation     .... LYP
 LDA part of GGA corr.  LDAOpt          .... VWN-3
 Gradients option       PostSCFGGA      .... off
 Hybrid DFT is turned on
   Fraction HF Exchange ScalHFX         ....  0.200000
   Scaling of DF-GGA-X  ScalDFX         ....  0.720000
   Scaling of DF-GGA-C  ScalDFC         ....  0.810000
   Scaling of DF-LDA-C  ScalLDAC        ....  1.000000
   Perturbative correction              ....  0.000000
   Density functional embedding theory  .... OFF
   NL short-range parameter             ....  4.800000


General Settings:
 Integral files         IntName         .... 3-NO2-C6H3-N2-v2-NEB-TS
 Hartree-Fock type      HFTyp           .... RHF
 Total Charge           Charge          ....    0
 Multiplicity           Mult            ....    1
 Number of Electrons    NEL             ....   76
 Basis Dimension        Dim             ....  280
 Nuclear Repulsion      ENuc            ....    529.2938970895 Eh

Convergence Acceleration:
 DIIS                   CNVDIIS         .... on
   Start iteration      DIISMaxIt       ....    12
   Startup error        DIISStart       ....  0.200000
   # of expansion vecs  DIISMaxEq       ....     5
   Bias factor          DIISBfac        ....   1.050
   Max. coefficient     DIISMaxC        ....  10.000
 Newton-Raphson         CNVNR           .... off
 SOSCF                  CNVSOSCF        .... on
   Start iteration      SOSCFMaxIt      ....   150
   Startup grad/error   SOSCFStart      ....  0.003300
 Level Shifting         CNVShift        .... on
   Level shift para.    LevelShift      ....    0.2500
   Turn off err/grad.   ShiftErr        ....    0.0010
 Zerner damping         CNVZerner       .... off
 Static damping         CNVDamp         .... on
   Fraction old density DampFac         ....    0.7000
   Max. Damping (<1)    DampMax         ....    0.9800
   Min. Damping (>=0)   DampMin         ....    0.0000
   Turn off err/grad.   DampErr         ....    0.1000
 Fernandez-Rico         CNVRico         .... off

SCF Procedure:
 Maximum # iterations   MaxIter         ....  1000
 SCF integral mode      SCFMode         .... Direct
   Integral package                     .... LIBINT
 Reset frequency        DirectResetFreq ....    20
 Integral Threshold     Thresh          ....  2.500e-11 Eh
 Primitive CutOff       TCut            ....  2.500e-12 Eh

Convergence Tolerance:
 Convergence Check Mode ConvCheckMode   .... Total+1el-Energy
 Convergence forced     ConvForced      .... 0
 Energy Change          TolE            ....  1.000e-08 Eh
 1-El. energy change                    ....  1.000e-05 Eh
 Orbital Gradient       TolG            ....  1.000e-05
 Orbital Rotation angle TolX            ....  1.000e-05
[...]

Components:
Nuclear Repulsion  :          529.37496063 Eh           14405.02502 eV
Electronic Energy  :        -1074.35356849 Eh          -29234.64686 eV
One Electron Energy:        -1788.63636059 Eh          -48671.26977 eV
Two Electron Energy:          714.28279210 Eh           19436.62291 eV

Virial components:
Potential Energy   :        -1086.67756851 Eh          -29569.99995 eV
Kinetic Energy     :          541.69896065 Eh           14740.37811 eV
Virial Ratio       :            2.00605437


DFT components:
N(Alpha)           :       37.999999273157 electrons
N(Beta)            :       37.999999273157 electrons
N(Total)           :       75.999998546313 electrons
E(X)               :      -54.269426929287 Eh       
E(C)               :       -3.402099955531 Eh       
E(XC)              :      -57.671526884818 Eh       
DFET-embed. en.    :        0.000000000000 Eh       

---------------
SCF CONVERGENCE
---------------

  Last Energy change         ...   -1.3017e-09  Tolerance :   1.0000e-08
  Last MAX-Density change    ...    5.3718e-03  Tolerance :   1.0000e-07
  Last RMS-Density change    ...    1.2591e-04  Tolerance :   5.0000e-09
  Last Orbital Gradient      ...    1.9139e-06  Tolerance :   1.0000e-05
  Last Orbital Rotation      ...    4.0116e-06  Tolerance :   1.0000e-05

             **** THE GBW FILE WAS UPDATED (3-NO2-C6H3-N2-v2-NEB-TS.gbw) ****
             **** DENSITY FILE WAS UPDATED (3-NO2-C6H3-N2-v2-NEB-TS.scfp.tmp) ****
             **** ENERGY FILE WAS UPDATED (3-NO2-C6H3-N2-v2-NEB-TS.en.tmp) ****
----------------
ORBITAL ENERGIES
----------------

  NO   OCC          E(Eh)            E(eV) 
   0   2.0000     -19.175854      -521.8015 
   1   2.0000     -19.173323      -521.7326 
   2   2.0000     -14.557627      -396.1332 
   3   2.0000     -14.541891      -395.7050 
   4   2.0000     -14.517785      -395.0490 
   5   2.0000     -10.293447      -280.0989 
   6   2.0000     -10.260628      -279.2059 
   7   2.0000     -10.251596      -278.9601 
   8   2.0000     -10.234213      -278.4871 
   9   2.0000     -10.233455      -278.4665 
  10   2.0000     -10.192027      -277.3391 
  11   2.0000      -1.223172       -33.2842 
  12   2.0000      -1.205750       -32.8101 
  13   2.0000      -1.051143       -28.6031 
  14   2.0000      -0.917252       -24.9597 
  15   2.0000      -0.832887       -22.6640 
  16   2.0000      -0.804680       -21.8965 
  17   2.0000      -0.714723       -19.4486 
  18   2.0000      -0.710011       -19.3204 
  19   2.0000      -0.627309       -17.0699 
  20   2.0000      -0.580795       -15.8042 
  21   2.0000      -0.557504       -15.1705 
  22   2.0000      -0.549411       -14.9502 
  23   2.0000      -0.541458       -14.7338 
  24   2.0000      -0.526706       -14.3324 
  25   2.0000      -0.525371       -14.2961 
  26   2.0000      -0.512116       -13.9354 
  27   2.0000      -0.510376       -13.8880 
  28   2.0000      -0.477885       -13.0039 
  29   2.0000      -0.434692       -11.8286 
  30   2.0000      -0.416163       -11.3244 
  31   2.0000      -0.412663       -11.2291 
  32   2.0000      -0.311720        -8.4823 
  33   2.0000      -0.307114        -8.3570 
  34   2.0000      -0.303828        -8.2676 
  35   2.0000      -0.291546        -7.9334 
  36   2.0000      -0.290544        -7.9061 
  37   2.0000      -0.239120        -6.5068 
  38   0.0000      -0.122371        -3.3299 
  39   0.0000      -0.120310        -3.2738 
  40   0.0000      -0.090243        -2.4556 
  41   0.0000      -0.030431        -0.8281 
  42   0.0000      -0.028137        -0.7656 
  43   0.0000      -0.012987        -0.3534 
  44   0.0000      -0.001990        -0.0541 
  45   0.0000       0.010664         0.2902 
  46   0.0000       0.017644         0.4801 
  47   0.0000       0.032534         0.8853 
  48   0.0000       0.034667         0.9433 
  49   0.0000       0.042700         1.1619 
  50   0.0000       0.053731         1.4621 
  51   0.0000       0.061653         1.6777 
  52   0.0000       0.068846         1.8734 
  53   0.0000       0.074844         2.0366 
  54   0.0000       0.077008         2.0955 
  55   0.0000       0.078354         2.1321 
  56   0.0000       0.088491         2.4080 
  57   0.0000       0.090838         2.4718 
  58   0.0000       0.104612         2.8466 
  59   0.0000       0.106302         2.8926 
  60   0.0000       0.111844         3.0434 
  61   0.0000       0.118655         3.2288 
  62   0.0000       0.120394         3.2761 
  63   0.0000       0.121188         3.2977 
  64   0.0000       0.125611         3.4180 
  65   0.0000       0.136313         3.7093 
  66   0.0000       0.138430         3.7669 
  67   0.0000       0.156219         4.2509 
  68   0.0000       0.158821         4.3217 
  69   0.0000       0.166419         4.5285 
  70   0.0000       0.170630         4.6431 
  71   0.0000       0.176263         4.7964 
  72   0.0000       0.182197         4.9578 
  73   0.0000       0.183394         4.9904 
  74   0.0000       0.190969         5.1965 
  75   0.0000       0.203952         5.5498 
  76   0.0000       0.207851         5.6559 
  77   0.0000       0.213660         5.8140 
  78   0.0000       0.216640         5.8951 
  79   0.0000       0.224375         6.1056 
  80   0.0000       0.227098         6.1796 
  81   0.0000       0.231639         6.3032 
  82   0.0000       0.235496         6.4082 
  83   0.0000       0.253067         6.8863 
  84   0.0000       0.255671         6.9572 
  85   0.0000       0.261050         7.1035 
  86   0.0000       0.267308         7.2738 
  87   0.0000       0.268531         7.3071 
  88   0.0000       0.270381         7.3574 
  89   0.0000       0.273714         7.4482 
  90   0.0000       0.291243         7.9251 
  91   0.0000       0.291541         7.9332 
  92   0.0000       0.295495         8.0408 
  93   0.0000       0.303758         8.2657 
  94   0.0000       0.308925         8.4063 
  95   0.0000       0.312458         8.5024 
  96   0.0000       0.326870         8.8946 
  97   0.0000       0.327505         8.9119 
  98   0.0000       0.341049         9.2804 
  99   0.0000       0.346136         9.4188 
 100   0.0000       0.359139         9.7727 
 101   0.0000       0.364880         9.9289 
 102   0.0000       0.381040        10.3686 
 103   0.0000       0.386716        10.5231 
 104   0.0000       0.398243        10.8368 
 105   0.0000       0.401609        10.9283 
 106   0.0000       0.423169        11.5150 
 107   0.0000       0.438428        11.9302 
 108   0.0000       0.441498        12.0138 
 109   0.0000       0.449919        12.2429 
 110   0.0000       0.456779        12.4296 
 111   0.0000       0.468682        12.7535 
 112   0.0000       0.476317        12.9613 
 113   0.0000       0.484972        13.1968 
 114   0.0000       0.486641        13.2422 
 115   0.0000       0.504635        13.7318 
 116   0.0000       0.505484        13.7549 
 117   0.0000       0.511285        13.9128 
 118   0.0000       0.532213        14.4822 
 119   0.0000       0.533800        14.5254 
 120   0.0000       0.540805        14.7161 
 121   0.0000       0.549967        14.9654 
 122   0.0000       0.554457        15.0875 
 123   0.0000       0.562529        15.3072 
 124   0.0000       0.579948        15.7812 
 125   0.0000       0.586236        15.9523 
 126   0.0000       0.600408        16.3379 
 127   0.0000       0.607690        16.5361 
 128   0.0000       0.610497        16.6125 
 129   0.0000       0.612224        16.6595 
 130   0.0000       0.619651        16.8616 
 131   0.0000       0.644321        17.5329 
 132   0.0000       0.664969        18.0947 
 133   0.0000       0.668561        18.1925 
 134   0.0000       0.685442        18.6518 
 135   0.0000       0.685767        18.6607 
 136   0.0000       0.698222        18.9996 
 137   0.0000       0.699616        19.0375 
 138   0.0000       0.714236        19.4353 
 139   0.0000       0.719872        19.5887 
 140   0.0000       0.720575        19.6078 
 141   0.0000       0.730760        19.8850 
 142   0.0000       0.735708        20.0196 
 143   0.0000       0.735939        20.0259 
 144   0.0000       0.742444        20.2029 
 145   0.0000       0.756652        20.5895 
 146   0.0000       0.769595        20.9417 
 147   0.0000       0.769908        20.9503 
 148   0.0000       0.787738        21.4354 
 149   0.0000       0.788947        21.4683 
 150   0.0000       0.802039        21.8246 
 151   0.0000       0.823147        22.3990 
 152   0.0000       0.836239        22.7552 
 153   0.0000       0.840801        22.8794 
 154   0.0000       0.843180        22.9441 
 155   0.0000       0.870527        23.6883 
 156   0.0000       0.876630        23.8543 
 157   0.0000       0.878627        23.9087 
 158   0.0000       0.881410        23.9844 
 159   0.0000       0.911353        24.7992 
 160   0.0000       0.937097        25.4997 
 161   0.0000       0.951746        25.8983 
 162   0.0000       0.967234        26.3198 
 163   0.0000       1.007951        27.4277 
 164   0.0000       1.012512        27.5519 
 165   0.0000       1.034210        28.1423 
 166   0.0000       1.066492        29.0207 
 167   0.0000       1.069602        29.1053 
 168   0.0000       1.072807        29.1926 
 169   0.0000       1.082524        29.4570 
 170   0.0000       1.087846        29.6018 
 171   0.0000       1.094501        29.7829 
 172   0.0000       1.097489        29.8642 
 173   0.0000       1.116709        30.3872 
 174   0.0000       1.157749        31.5039 
 175   0.0000       1.168764        31.8037 
 176   0.0000       1.184914        32.2431 
 177   0.0000       1.193877        32.4870 
 178   0.0000       1.215042        33.0630 
 179   0.0000       1.224324        33.3156 
 180   0.0000       1.243111        33.8268 
 181   0.0000       1.262922        34.3658 
 182   0.0000       1.268564        34.5194 
 183   0.0000       1.283522        34.9264 
 184   0.0000       1.299487        35.3608 
 185   0.0000       1.325875        36.0789 
 186   0.0000       1.330515        36.2051 
 187   0.0000       1.338107        36.4117 
 188   0.0000       1.346176        36.6313 
 189   0.0000       1.363673        37.1074 
 190   0.0000       1.367870        37.2216 
 191   0.0000       1.386512        37.7289 
 192   0.0000       1.389381        37.8070 
 193   0.0000       1.403099        38.1803 
 194   0.0000       1.410240        38.3746 
 195   0.0000       1.419330        38.6219 
 196   0.0000       1.444679        39.3117 
 197   0.0000       1.449967        39.4556 
 198   0.0000       1.471824        40.0504 
 199   0.0000       1.506992        41.0073 
 200   0.0000       1.507346        41.0170 
 201   0.0000       1.521645        41.4061 
 202   0.0000       1.549481        42.1635 
 203   0.0000       1.566324        42.6219 
 204   0.0000       1.588910        43.2364 
 205   0.0000       1.595740        43.4223 
 206   0.0000       1.610557        43.8255 
 207   0.0000       1.640698        44.6457 
 208   0.0000       1.649003        44.8717 
 209   0.0000       1.649483        44.8847 
 210   0.0000       1.683547        45.8116 
 211   0.0000       1.684242        45.8306 
 212   0.0000       1.703382        46.3514 
 213   0.0000       1.731445        47.1150 
 214   0.0000       1.751058        47.6487 
 215   0.0000       1.759167        47.8694 
 216   0.0000       1.792929        48.7881 
 217   0.0000       1.821297        49.5600 
 218   0.0000       1.830849        49.8199 
 219   0.0000       1.855488        50.4904 
 220   0.0000       1.879383        51.1406 
 221   0.0000       1.904115        51.8136 
 222   0.0000       1.913652        52.0731 
 223   0.0000       1.915961        52.1359 
 224   0.0000       1.944103        52.9017 
 225   0.0000       1.969670        53.5975 
 226   0.0000       1.981862        53.9292 
 227   0.0000       1.995787        54.3081 
 228   0.0000       2.001055        54.4515 
 229   0.0000       2.008727        54.6602 
 230   0.0000       2.019340        54.9490 
 231   0.0000       2.059843        56.0512 
 232   0.0000       2.075795        56.4852 
 233   0.0000       2.122017        57.7430 
 234   0.0000       2.126772        57.8724 
 235   0.0000       2.180723        59.3405 
 236   0.0000       2.190963        59.6191 
 237   0.0000       2.196214        59.7620 
 238   0.0000       2.201835        59.9150 
 239   0.0000       2.235169        60.8220 
 240   0.0000       2.260203        61.5032 
 241   0.0000       2.278489        62.0008 
 242   0.0000       2.297414        62.5158 
 243   0.0000       2.328920        63.3731 
 244   0.0000       2.340618        63.6914 
 245   0.0000       2.349424        63.9311 
 246   0.0000       2.368330        64.4455 
 247   0.0000       2.421252        65.8856 
 248   0.0000       2.458542        66.9003 
 249   0.0000       2.478906        67.4545 
 250   0.0000       2.486777        67.6686 
 251   0.0000       2.551035        69.4172 
 252   0.0000       2.605436        70.8975 
 253   0.0000       2.669495        72.6406 
 254   0.0000       2.732121        74.3448 
 255   0.0000       2.756860        75.0180 
 256   0.0000       2.806386        76.3657 
 257   0.0000       2.816749        76.6476 
 258   0.0000       2.851253        77.5865 
 259   0.0000       2.927786        79.6691 
 260   0.0000       2.947921        80.2170 
 261   0.0000       2.990882        81.3860 
 262   0.0000       3.052230        83.0554 
 263   0.0000       3.098255        84.3078 
 264   0.0000       3.133354        85.2629 
 265   0.0000       3.294627        89.6514 
 266   0.0000       3.300169        89.8022 
 267   0.0000       3.306456        89.9733 
 268   0.0000       3.352475        91.2255 
 269   0.0000       3.383115        92.0592 
 270   0.0000       3.404136        92.6312 
 271   0.0000       3.410122        92.7941 
 272   0.0000       3.468243        94.3757 
 273   0.0000       3.557147        96.7949 
 274   0.0000       3.589970        97.6880 
 275   0.0000       3.616644        98.4139 
 276   0.0000       3.787936       103.0750 
 277   0.0000       3.827438       104.1499 
 278   0.0000       3.847977       104.7088 
 279   0.0000       4.128593       112.3447 
-------
TIMINGS
-------

Total SCF time: 0 days 0 hours 0 min 25 sec 

Total time                  ....      25.199 sec
Sum of individual times     ....      24.539 sec  ( 97.4%)

Fock matrix formation       ....      14.820 sec  ( 58.8%)
  XC integration            ....       2.045 sec  ( 13.8% of F)
    Basis function eval.    ....       0.501 sec  ( 24.5% of XC)
    Density eval.           ....       0.536 sec  ( 26.2% of XC)
    XC-Functional eval.     ....       0.063 sec  (  3.1% of XC)
    XC-Potential eval.      ....       0.405 sec  ( 19.8% of XC)
Diagonalization             ....       0.033 sec  (  0.1%)
Density matrix formation    ....       0.079 sec  (  0.3%)
Population analysis         ....       0.000 sec  (  0.0%)
Initial guess               ....       0.052 sec  (  0.2%)
Orbital Transformation      ....       0.000 sec  (  0.0%)
Orbital Orthonormalization  ....       0.024 sec  (  0.1%)
DIIS solution               ....       0.010 sec  (  0.0%)
SOSCF solution              ....       0.204 sec  (  0.8%)
Grid generation             ....       9.342 sec  ( 37.1%)

-------------------------   --------------------
FINAL SINGLE POINT ENERGY      -544.978607861350
-------------------------   --------------------

                                *** OPTIMIZATION RUN DONE ***


                    ***********************HURRAY************************
                    ***        THE TS OPTIMIZATION HAS CONVERGED      ***
                    *****************************************************



---------------------------------------------------------------
                      PATH SUMMARY FOR NEB-TS             
---------------------------------------------------------------
All forces in Eh/Bohr. Global forces for TS.

Image     E(Eh)   dE(kcal/mol)  max(|Fp|)  RMS(Fp)
  0    -544.98147     0.00       0.00075   0.00032
  1    -544.97858     1.81       0.00057   0.00049 <= CI
 TS    -544.97861     1.79       0.00023   0.00009 <= TS
  2    -544.98572    -2.67       0.00142   0.00106
  3    -544.99693    -9.70       0.00131   0.00080
  4    -545.00508   -14.82       0.00107   0.00064
  5    -545.00983   -17.80       0.00078   0.00056
  6    -545.01256   -19.51       0.00064   0.00039
  7    -545.01389   -20.35       0.00079   0.00045
  8    -545.01433   -20.62       0.00106   0.00054
  9    -545.01463   -20.81       0.00081   0.00048
 10    -545.01492   -20.99       0.00074   0.00034
 11    -545.01517   -21.15       0.00038   0.00020
 12    -545.01535   -21.26       0.00013   0.00008
 13    -545.01541   -21.30       0.00088   0.00043
----------
STATISTICS
----------

For the individual parts of the NEB, NEB-CI or NEB-TS run:

Number of iterations:
     NEB                               ... 63  71.6%
     TS optimization                   ... 25  28.4%
Number of SCF / gradient calculations:
     NEB                               ... 758  96.8%
     TS optimization                   ... 25  3.2%

----------
 TIMINGS
----------

For the individual parts of the NEB, NEB-CI or NEB-TS run:

Total                                  ...    45368.359 sec
NEB                                    ...    44028.545 sec  97.0%
TS Optimization                        ...     1339.813 sec  3.0%


                            ***************************************
                            *     ORCA property calculations      *
                            ***************************************

                                    ---------------------
                                    Active property flags
                                    ---------------------
   (+) Dipole Moment


------------------------------------------------------------------------------
                       ORCA ELECTRIC PROPERTIES CALCULATION
------------------------------------------------------------------------------

Dipole Moment Calculation                       ... on
Quadrupole Moment Calculation                   ... off
Polarizability Calculation                      ... off
GBWName                                         ... 3-NO2-C6H3-N2-v2-NEB-TS.gbw
Electron density file                           ... 3-NO2-C6H3-N2-v2-NEB-TS.scfp.tmp
The origin for moment calculation is the CENTER OF MASS  = ( 0.266599,  0.719783  0.770086)

-------------
DIPOLE MOMENT
-------------
                                X             Y             Z
Electronic contribution:      3.81813       1.75866       3.57448
Nuclear contribution   :     -2.42991      -4.21027      -4.97004
                        -----------------------------------------
Total Dipole Moment    :      1.38823      -2.45161      -1.39556
                        -----------------------------------------
Magnitude (a.u.)       :      3.14407
Magnitude (Debye)      :      7.99158



--------------------
Rotational spectrum 
--------------------
 
Rotational constants in cm-1:     0.071790     0.025246     0.018678 
Rotational constants in MHz :  2152.218367   756.867599   559.953371 

 Dipole components along the rotational axes: 
x,y,z [a.u.] :     2.690883    -1.626129     0.001310 
x,y,z [Debye]:     6.839681    -4.133292     0.003329 

 

Timings for individual modules:

Sum of individual times         ...     1538.361 sec (=  25.639 min)
GTO integral calculation        ...       63.917 sec (=   1.065 min)   4.2 %
SCF iterations                  ...     1096.912 sec (=  18.282 min)  71.3 %
SCF Gradient evaluation         ...      374.802 sec (=   6.247 min)  24.4 %
Geometry relaxation             ...        2.729 sec (=   0.045 min)   0.2 %
                             ****ORCA TERMINATED NORMALLY****
TOTAL RUN TIME: 0 days 12 hours 37 minutes 12 seconds 985 msec
