
                                 *****************
                                 * O   R   C   A *
                                 *****************

           --- An Ab Initio, DFT and Semiempirical electronic structure package ---

                  #######################################################
                  #                        -***-                        #
                  #          Department of theory and spectroscopy      #
                  #               Directorship: Frank Neese             #
                  #        Max Planck Institute fuer Kohlenforschung    #
                  #                Kaiser Wilhelm Platz 1               #
                  #                 D-45470 Muelheim/Ruhr               #
                  #                      Germany                        #
                  #                                                     #
                  #                  All rights reserved                #
                  #                        -***-                        #
                  #######################################################


                         Program Version 4.1.0  - RELEASE  -


 With contributions from (in alphabetic order):
   Daniel Aravena         : Magnetic Properties
   Michael Atanasov       : Ab Initio Ligand Field Theory
   Alexander A. Auer      : GIAO ZORA
   Ute Becker             : Parallelization
   Giovanni Bistoni       : ED, Open-shell LED
   Martin Brehm           : Molecular dynamics
   Dmytro Bykov           : SCF Hessian
   Vijay G. Chilkuri      : MRCI spin determinant printing
   Dipayan Datta          : RHF DLPNO-CCSD density
   Achintya Kumar Dutta   : EOM-CC, STEOM-CC
   Dmitry Ganyushin       : Spin-Orbit,Spin-Spin,Magnetic field MRCI
   Miquel Garcia          : C-PCM Hessian
   Yang Guo               : DLPNO-NEVPT2, CIM, IAO-localization
   Andreas Hansen         : Spin unrestricted coupled pair/coupled cluster methods
   Benjamin Helmich-Paris : CASSCF linear response (MC-RPA)
   Lee Huntington         : MR-EOM, pCC
   Robert Izsak           : Overlap fitted RIJCOSX, COSX-SCS-MP3, EOM
   Christian Kollmar      : KDIIS, OOCD, Brueckner-CCSD(T), CCSD density
   Simone Kossmann        : Meta GGA functionals, TD-DFT gradient, OOMP2, MP2 Hessian
   Martin Krupicka        : AUTO-CI
   Lucas Lang             : DCDCAS
   Dagmar Lenk            : GEPOL surface, SMD
   Dimitrios Liakos       : Extrapolation schemes; parallel MDCI
   Dimitrios Manganas     : ROCIS; embedding schemes
   Dimitrios Pantazis     : SARC Basis sets
   Taras Petrenko         : DFT Hessian,TD-DFT gradient, ASA, ECA, R-Raman, ABS, FL, XAS/XES, NRVS
   Peter Pinski           : DLPNO-MP2, DLPNO-MP2 Gradient
   Christoph Reimann      : Effective Core Potentials
   Marius Retegan         : Local ZFS, SOC
   Christoph Riplinger    : Optimizer, TS searches, QM/MM, DLPNO-CCSD(T), (RO)-DLPNO pert. Triples
   Tobias Risthaus        : Range-separated hybrids, TD-DFT gradient, RPA, STAB
   Michael Roemelt        : Restricted open shell CIS
   Masaaki Saitow         : Open-shell DLPNO
   Barbara Sandhoefer     : DKH picture change effects
   Avijit Sen             : IP-ROCIS
   Kantharuban Sivalingam : CASSCF convergence, NEVPT2, FIC-MRCI
   Bernardo de Souza      : ESD, SOC TD-DFT
   Georgi Stoychev        : AutoAux, RI-MP2 NMR
   Willem Van den Heuvel  : Paramagnetic NMR
   Boris Wezisla          : Elementary symmetry handling
   Frank Wennmohs         : Technical directorship


 We gratefully acknowledge several colleagues who have allowed us to
 interface, adapt or use parts of their codes:
   Stefan Grimme, W. Hujo, H. Kruse,             : VdW corrections, initial TS optimization,
                  C. Bannwarth                     DFT functionals, gCP, sTDA/sTD-DF
   Ed Valeev                                     : LibInt (2-el integral package), F12 methods
   Garnet Chan, S. Sharma, J. Yang, R. Olivares  : DMRG
   Ulf Ekstrom                                   : XCFun DFT Library
   Mihaly Kallay                                 : mrcc  (arbitrary order and MRCC methods)
   Andreas Klamt, Michael Diedenhofen            : otool_cosmo (COSMO solvation model)
   Jiri Pittner, Ondrej Demel                    : Mk-CCSD
   Frank Weinhold                                : gennbo (NPA and NBO analysis)
   Christopher J. Cramer and Donald G. Truhlar   : smd solvation model
   Lars Goerigk                                  : TD-DFT with DH, B97 family of functionals
   V. Asgeirsson, H. Jonsson                     : NEB implementation
   FAccTs GmbH                                   : IRC, NEB, NEB-TS, Multilevel


 Your calculation uses the libint2 library for the computation of 2-el integrals
 For citations please refer to: http://libint.valeyev.net

 This ORCA versions uses:
   CBLAS   interface :  Fast vector & matrix operations
   LAPACKE interface :  Fast linear algebra routines
   SCALAPACK package :  Parallel linear algebra routines




***************************************
The coordinates will be read from file: 3-NO2-C6H3-N2-v1-source.xyz
***************************************


Your calculation utilizes a Nudged-Elastic-Band implementation
 by V.Asgeirsson, C. Riplinger & H. Jonsson
Please cite in your paper:
 V. Asgeirsson et al., in prep. (2019)
   

----- Orbital basis set information -----
Your calculation utilizes the basis: aug-cc-pVDZ 
    H, B-Ne : Obtained from the ccRepo (grant-hill.group.shef.ac.uk/ccrepo) Feb. 2017
              R. A. Kendall, T. H. Dunning, Jr., R. J. Harrison, J. Chem. Phys. 96, 6796 (1992)
         He : Obtained from the ccRepo (grant-hill.group.shef.ac.uk/ccrepo) Feb. 2017
              D. E. Woon, T. H. Dunning, Jr., J. Chem. Phys. 100, 2975 (1994)
  Li-Be, Na : Obtained from the ccRepo (grant-hill.group.shef.ac.uk/ccrepo) Feb. 2017
              B. P. Prascher, D. E. Woon, K. A. Peterson, T. H. Dunning, Jr., A. K. Wilson, Theor. Chem. Acc. 128, 69 (2011)
         Mg : Obtained from the Peterson Research Group Website (tyr0.chem.wsu.edu/~kipeters) Feb. 2017
              B. P. Prascher, D. E. Woon, K. A. Peterson, T. H. Dunning, Jr., A. K. Wilson, Theor. Chem. Acc. 128, 69 (2011)
      Al-Ar : Obtained from the ccRepo (grant-hill.group.shef.ac.uk/ccrepo) Feb. 2017
              D. E. Woon, T. H. Dunning, Jr., J. Chem. Phys. 98, 1358 (1993)
      Sc-Zn : Obtained from the ccRepo (grant-hill.group.shef.ac.uk/ccrepo) Feb. 2017
              N. B. Balabanov, K. A. Peterson, J. Chem. Phys. 123, 064107 (2005)
              N. B. Balabanov, K. A. Peterson, J. Chem. Phys. 125, 074110 (2006)
      Ga-Kr : Obtained from the ccRepo (grant-hill.group.shef.ac.uk/ccrepo) Feb. 2017
              A. K. Wilson, D. E. Woon, K. A. Peterson, T. H. Dunning, Jr., J. Chem. Phys. 110, 7667 (1999)

================================================================================
                                        WARNINGS
                       Please study these warnings very carefully!
================================================================================


WARNING: Geometry Optimization
  ===> : Switching off AutoStart
         For restart on a previous wavefunction, please use MOREAD

INFO   : the flag for use of LIBINT has been found!

================================================================================
                                       INPUT FILE
================================================================================
NAME = 3-NO2-C6H3-N2-v1-NEB-TS.orc
|  1> ! B3LYP/G aug-cc-pVDZ TightSCF Grid7 NEB-TS
|  2> %scf MaxIter 1000 end
|  3> %geom MaxIter 1000 TolE 1e-8 TolRMSG 5e-7 TolMaxG 1e-6 Convergence tight end
|  4> %neb
|  5>   Nimages 12
|  6>   neb_end_xyzfile "3-NO2-C6H3-N2-v1-final.xyz"
|  7> end
|  8> * xyzfile 0 1 3-NO2-C6H3-N2-v1-source.xyz
|  9> %pal nprocs 42 end
| 10> 
| 11>                          ****END OF INPUT****
================================================================================

Running a Single Point calculation on the reactant structure before starting the actual NEB.

---------------------------------
CARTESIAN COORDINATES (ANGSTROEM)
---------------------------------
  C     -1.878330    0.120887   -1.094501
  C     -0.553541   -0.267927   -0.727328
  C     -0.072963    0.592227    0.272473
  C     -0.667286    1.701841    0.917230
  C     -1.945362    1.976486    0.476015
  C     -2.561117    1.193769   -0.528561
  H     -2.397473   -0.452893   -1.866902
  H     -0.189174    2.300799    1.689643
  N      1.234974    0.265247    0.684176
  N      2.267865   -0.056199    0.954546
  H     -3.571979    1.456046   -0.838526
  N     -2.671537    3.110181    1.071512
  O     -3.807271    3.335052    0.663560
  O     -2.098117    3.762672    1.941964

----------------------------
CARTESIAN COORDINATES (A.U.)
----------------------------
  NO LB      ZA    FRAG     MASS         X           Y           Z
   0 C     6.0000    0    12.011   -3.549529    0.228444   -2.068307
   1 C     6.0000    0    12.011   -1.046041   -0.506308   -1.374450
   2 C     6.0000    0    12.011   -0.137879    1.119148    0.514899
   3 C     6.0000    0    12.011   -1.260988    3.216014    1.733313
   4 C     6.0000    0    12.011   -3.676201    3.735017    0.899538
   5 C     6.0000    0    12.011   -4.839809    2.255896   -0.998835
   6 H     1.0000    0     1.008   -4.530567   -0.855843   -3.527934
   7 H     1.0000    0     1.008   -0.357486    4.347880    3.192963
   8 N     7.0000    0    14.007    2.333762    0.501244    1.292905
   9 N     7.0000    0    14.007    4.285644   -0.106200    1.803830
  10 H     1.0000    0     1.008   -6.750062    2.751528   -1.584584
  11 N     7.0000    0    14.007   -5.048473    5.877391    2.024864
  12 O     8.0000    0    15.999   -7.194700    6.302334    1.253946
  13 O     8.0000    0    15.999   -3.964866    7.110420    3.669780

--------------------------------
INTERNAL COORDINATES (ANGSTROEM)
--------------------------------
 C      0   0   0     0.000000000000     0.00000000     0.00000000
 C      1   0   0     1.428656200939     0.00000000     0.00000000
 C      2   1   0     1.403717006406   109.49694203     0.00000000
 C      3   2   1     1.414275482983   131.42247475     0.00000000
 C      4   3   2     1.379702187270   113.55741685     0.00000000
 C      1   2   3     1.391963188239   124.06501464     0.00000000
 H      1   2   3     1.093314446432   118.62356435   180.00036531
 H      4   3   2     1.088101110770   124.81000203   179.99969436
 N      3   2   1     1.409649940482   112.55323968   180.00120330
 N      9   3   2     1.115029958848   175.69861969     0.00000000
 H      6   1   2     1.089362224007   121.67220401   179.99904880
 N      5   4   3     1.472145279988   118.74295793   180.00194061
 O     12   5   4     1.227552137746   117.58224661   180.02698007
 O     12   5   4     1.229732587229   117.70533086   359.95963308

---------------------------
INTERNAL COORDINATES (A.U.)
---------------------------
 C      0   0   0     0.000000000000     0.00000000     0.00000000
 C      1   0   0     2.699768959302     0.00000000     0.00000000
 C      2   1   0     2.652640711635   109.49694203     0.00000000
 C      3   2   1     2.672593340757   131.42247475     0.00000000
 C      4   3   2     2.607259280313   113.55741685     0.00000000
 C      1   2   3     2.630429214272   124.06501464     0.00000000
 H      1   2   3     2.066064882016   118.62356435   180.00036531
 H      4   3   2     2.056213105372   124.81000203   179.99969436
 N      3   2   1     2.663852332210   112.55323968   180.00120330
 N      9   3   2     2.107101253341   175.69861969     0.00000000
 H      6   1   2     2.058596264012   121.67220401   179.99904880
 N      5   4   3     2.781951408523   118.74295793   180.00194061
 O     12   5   4     2.319737355449   117.58224661   180.02698007
 O     12   5   4     2.323857807822   117.70533086   359.95963308

---------------------
BASIS SET INFORMATION
---------------------
There are 4 groups of distinct atoms

 Group   1 Type C   : 18s5p2d contracted to 4s3p2d pattern {8811/311/11}
 Group   2 Type H   : 5s2p contracted to 3s2p pattern {311/11}
 Group   3 Type N   : 18s5p2d contracted to 4s3p2d pattern {8811/311/11}
 Group   4 Type O   : 18s5p2d contracted to 4s3p2d pattern {8811/311/11}

Atom   0C    basis set group =>   1
Atom   1C    basis set group =>   1
Atom   2C    basis set group =>   1
Atom   3C    basis set group =>   1
Atom   4C    basis set group =>   1
Atom   5C    basis set group =>   1
Atom   6H    basis set group =>   2
Atom   7H    basis set group =>   2
Atom   8N    basis set group =>   3
Atom   9N    basis set group =>   3
Atom  10H    basis set group =>   2
Atom  11N    basis set group =>   3
Atom  12O    basis set group =>   4
Atom  13O    basis set group =>   4


           ************************************************************
           *        Program running with 42 parallel MPI-processes    *
           *            working without local directories             *
           ************************************************************
------------------------------------------------------------------------------
                           ORCA GTO INTEGRAL CALCULATION
------------------------------------------------------------------------------

                         BASIS SET STATISTICS AND STARTUP INFO

 # of primitive gaussian shells          ...  296
 # of primitive gaussian functions       ...  506
 # of contracted shells                  ...  114
 # of contracted basis functions         ...  280
 Highest angular momentum                ...    2
 Maximum contraction depth               ...    8
 Integral package used                   ... LIBINT
 Integral threshhold            Thresh   ...  2.500e-11
 Primitive cut-off              TCut     ...  2.500e-12


------------------------------ INTEGRAL EVALUATION ----------------------------


 * One electron integrals 
 Pre-screening matrix                    ... done
 Shell pair data                         ... done (   0.004 sec)



           ************************************************************
           *        Program running with 42 parallel MPI-processes    *
           *            working without local directories             *
           ************************************************************
-------------------------------------------------------------------------------
                                 ORCA SCF
-------------------------------------------------------------------------------

------------
SCF SETTINGS
------------
Hamiltonian:
 Density Functional     Method          .... DFT(GTOs)
 Exchange Functional    Exchange        .... B88
   X-Alpha parameter    XAlpha          ....  0.666667
   Becke's b parameter  XBeta           ....  0.004200
 Correlation Functional Correlation     .... LYP
 LDA part of GGA corr.  LDAOpt          .... VWN-3
 Gradients option       PostSCFGGA      .... off
 Hybrid DFT is turned on
   Fraction HF Exchange ScalHFX         ....  0.200000
   Scaling of DF-GGA-X  ScalDFX         ....  0.720000
   Scaling of DF-GGA-C  ScalDFC         ....  0.810000
   Scaling of DF-LDA-C  ScalLDAC        ....  1.000000
   Perturbative correction              ....  0.000000
   Density functional embedding theory  .... OFF
   NL short-range parameter             ....  4.800000


General Settings:
 Integral files         IntName         .... 3-NO2-C6H3-N2-v1-NEB-TS
 Hartree-Fock type      HFTyp           .... RHF
 Total Charge           Charge          ....    0
 Multiplicity           Mult            ....    1
 Number of Electrons    NEL             ....   76
 Basis Dimension        Dim             ....  280
 Nuclear Repulsion      ENuc            ....    534.1263053618 Eh

Convergence Acceleration:
 DIIS                   CNVDIIS         .... on
   Start iteration      DIISMaxIt       ....    12
   Startup error        DIISStart       ....  0.200000
   # of expansion vecs  DIISMaxEq       ....     5
   Bias factor          DIISBfac        ....   1.050
   Max. coefficient     DIISMaxC        ....  10.000
 Newton-Raphson         CNVNR           .... off
 SOSCF                  CNVSOSCF        .... on
   Start iteration      SOSCFMaxIt      ....   150
   Startup grad/error   SOSCFStart      ....  0.003300
 Level Shifting         CNVShift        .... on
   Level shift para.    LevelShift      ....    0.2500
   Turn off err/grad.   ShiftErr        ....    0.0010
 Zerner damping         CNVZerner       .... off
 Static damping         CNVDamp         .... on
   Fraction old density DampFac         ....    0.7000
   Max. Damping (<1)    DampMax         ....    0.9800
   Min. Damping (>=0)   DampMin         ....    0.0000
   Turn off err/grad.   DampErr         ....    0.1000
 Fernandez-Rico         CNVRico         .... off

SCF Procedure:
 Maximum # iterations   MaxIter         ....  1000
 SCF integral mode      SCFMode         .... Direct
   Integral package                     .... LIBINT
 Reset frequency        DirectResetFreq ....    20
 Integral Threshold     Thresh          ....  2.500e-11 Eh
 Primitive CutOff       TCut            ....  2.500e-12 Eh

Convergence Tolerance:
 Convergence Check Mode ConvCheckMode   .... Total+1el-Energy
 Convergence forced     ConvForced      .... 0
 Energy Change          TolE            ....  1.000e-08 Eh
 1-El. energy change                    ....  1.000e-05 Eh
 Orbital Gradient       TolG            ....  1.000e-05
 Orbital Rotation angle TolX            ....  1.000e-05
 DIIS Error             TolErr          ....  5.000e-07


Diagonalization of the overlap matrix:
Smallest eigenvalue                        ... 4.587e-06
Time for diagonalization                   ...    0.020 sec
Threshold for overlap eigenvalues          ... 1.000e-08
Number of eigenvalues below threshold      ... 0
Time for construction of square roots      ...    0.020 sec
Total time needed                          ...    0.040 sec

-------------------
DFT GRID GENERATION
-------------------

General Integration Accuracy     IntAcc      ...  5.670
Radial Grid Type                 RadialGrid  ... Gauss-Chebyshev
Angular Grid (max. acc.)         AngularGrid ... Lebedev-770
Angular grid pruning method      GridPruning ... 3 (G Style)
Weight generation scheme         WeightScheme... Becke
Basis function cutoff            BFCut       ...    1.0000e-11
Integration weight cutoff        WCut        ...    1.0000e-14
Grids for H and He will be reduced by one unit

# of grid points (after initial pruning)     ... 328834 (   0.0 sec)
# of grid points (after weights+screening)   ... 303912 (   0.3 sec)
nearest neighbour list constructed           ...    0.0 sec
Grid point re-assignment to atoms done       ...    0.1 sec
Grid point division into batches done        ...    6.9 sec
Reduced shell lists constructed in    7.1 sec

Total number of grid points                  ...   303912
Total number of batches                      ...     4754
Average number of points per batch           ...       63
Average number of grid points per atom       ...    21708
Average number of shells per batch           ...    89.52 (78.53%)
Average number of basis functions per batch  ...   219.85 (78.52%)
Average number of large shells per batch     ...    75.20 (84.00%)
Average number of large basis fcns per batch ...   184.77 (84.04%)
Maximum spatial batch extension              ...   5.84, 11.27, 11.58 au
Average spatial batch extension              ...   0.03,  0.03,  0.03 au

Time for grid setup =    9.305 sec

------------------------------
INITIAL GUESS: MODEL POTENTIAL
------------------------------
Loading Hartree-Fock densities                     ... done
Calculating cut-offs                               ... done
Setting up the integral package                    ... done
Initializing the effective Hamiltonian             ... done
Starting the Coulomb interaction                   ... done (   0.0 sec)
Reading the grid                                   ... done
Mapping shells                                     ... done
Starting the XC term evaluation                    ... done (   0.3 sec)
  promolecular density results
     # of electrons  =     75.998531345
     EX              =    -67.750503227
     EC              =     -2.658462282
     EX+EC           =    -70.408965508
Transforming the Hamiltonian                       ... done (   0.0 sec)
Diagonalizing the Hamiltonian                      ... done (   0.0 sec)
Back transforming the eigenvectors                 ... done (   0.0 sec)
Now organizing SCF variables                       ... done
                      ------------------
                      INITIAL GUESS DONE (   9.8 sec)
                      ------------------
--------------
SCF ITERATIONS
--------------
ITER       Energy         Delta-E        Max-DP      RMS-DP      [F,P]     Damp
               ***  Starting incremental Fock matrix formation  ***
  0   -544.6762591792   0.000000000000 0.55106160  0.01135047  0.1884152 0.7000
  1   -544.8274778308  -0.151218651573 0.40854402  0.00832381  0.0682917 0.7000
                               ***Turning on DIIS***
  2   -544.8743751748  -0.046897344040 0.84359345  0.01789612  0.0280508 0.0000
  3   -544.9543098809  -0.079934706051 0.16181952  0.00322711  0.0408181 0.0000
  4   -544.9752464590  -0.020936578136 0.07824924  0.00139595  0.0144676 0.0000
  5   -544.9771057131  -0.001859254075 0.01904684  0.00049131  0.0066923 0.0000
                      *** Initiating the SOSCF procedure ***
                           *** Shutting down DIIS ***
                      *** Re-Reading the Fockian *** 
                      *** Removing any level shift *** 
ITER      Energy       Delta-E        Grad      Rot      Max-DP    RMS-DP
  6   -544.97736980  -0.0002640858  0.001834  0.001834  0.008801  0.000204
               *** Restarting incremental Fock matrix formation ***
  7   -544.97742502  -0.0000552243  0.001352  0.012849  0.025919  0.000280
  8   -544.97746140  -0.0000363791  0.001530  0.013548  0.024624  0.000264
  9   -544.97746267  -0.0000012722  0.001750  0.006190  0.016579  0.000186
 10   -544.97748208  -0.0000194030  0.000492  0.004496  0.009657  0.000139
 11   -544.97748246  -0.0000003842  0.000457  0.003626  0.011286  0.000138
 12   -544.97748872  -0.0000062544  0.000104  0.000526  0.009120  0.000124
 13   -544.97748804   0.0000006752  0.000185  0.000445  0.002870  0.000052
 14   -544.97748908  -0.0000010401  0.000068  0.000119  0.013368  0.000132
 15   -544.97748893   0.0000001524  0.000130  0.000105  0.003480  0.000035
 16   -544.97748913  -0.0000002010  0.000017  0.000035  0.007514  0.000113
 17   -544.97748912   0.0000000115  0.000029  0.000024  0.002551  0.000034
                  ***Gradient check signals convergence***
              ***Rediagonalizing the Fockian in SOSCF/NRSCF***

               *****************************************************
               *                     SUCCESS                       *
               *           SCF CONVERGED AFTER  18 CYCLES          *
               *****************************************************


----------------
TOTAL SCF ENERGY
----------------

Total Energy       :         -544.97748913 Eh          -14829.59140 eV

Components:
Nuclear Repulsion  :          534.12630536 Eh           14534.31568 eV
Electronic Energy  :        -1079.10379449 Eh          -29363.90708 eV
One Electron Energy:        -1797.18837116 Eh          -48903.98181 eV
Two Electron Energy:          718.08457667 Eh           19540.07473 eV

Virial components:
Potential Energy   :        -1086.66381228 Eh          -29569.62562 eV
Kinetic Energy     :          541.68632315 Eh           14740.03422 eV
Virial Ratio       :            2.00607578


DFT components:
N(Alpha)           :       38.000000083194 electrons
N(Beta)            :       38.000000083194 electrons
N(Total)           :       76.000000166388 electrons
E(X)               :      -54.281673427590 Eh       
E(C)               :       -3.404297222150 Eh       
E(XC)              :      -57.685970649740 Eh       
DFET-embed. en.    :        0.000000000000 Eh       

---------------
SCF CONVERGENCE
---------------

  Last Energy change         ...   -1.5188e-08  Tolerance :   1.0000e-08
  Last MAX-Density change    ...    6.9526e-03  Tolerance :   1.0000e-07
  Last RMS-Density change    ...    7.5763e-05  Tolerance :   5.0000e-09
  Last Orbital Gradient      ...    1.6901e-06  Tolerance :   1.0000e-05
  Last Orbital Rotation      ...    4.2563e-06  Tolerance :   1.0000e-05

             **** THE GBW FILE WAS UPDATED (3-NO2-C6H3-N2-v1-NEB-TS.gbw) ****
             **** DENSITY FILE WAS UPDATED (3-NO2-C6H3-N2-v1-NEB-TS.scfp.tmp) ****
             **** ENERGY FILE WAS UPDATED (3-NO2-C6H3-N2-v1-NEB-TS.en.tmp) ****
----------------
ORBITAL ENERGIES
----------------

  NO   OCC          E(Eh)            E(eV) 
   0   2.0000     -19.201243      -522.4924 
   1   2.0000     -19.199888      -522.4555 
   2   2.0000     -14.589238      -396.9934 
   3   2.0000     -14.563423      -396.2909 
   4   2.0000     -14.522611      -395.1803 
   5   2.0000     -10.298076      -280.2249 
   6   2.0000     -10.276108      -279.6271 
   7   2.0000     -10.260604      -279.2052 
   8   2.0000     -10.239637      -278.6347 
   9   2.0000     -10.218577      -278.0616 
  10   2.0000     -10.191617      -277.3280 
  11   2.0000      -1.250872       -34.0380 
  12   2.0000      -1.217068       -33.1181 
  13   2.0000      -1.078209       -29.3396 
  14   2.0000      -0.938493       -25.5377 
  15   2.0000      -0.877538       -23.8790 
  16   2.0000      -0.805636       -21.9225 
  17   2.0000      -0.752312       -20.4715 
  18   2.0000      -0.705160       -19.1884 
  19   2.0000      -0.634037       -17.2530 
  20   2.0000      -0.597277       -16.2527 
  21   2.0000      -0.570868       -15.5341 
  22   2.0000      -0.568292       -15.4640 
  23   2.0000      -0.557387       -15.1673 
  24   2.0000      -0.555374       -15.1125 
  25   2.0000      -0.535499       -14.5717 
  26   2.0000      -0.525905       -14.3106 
  27   2.0000      -0.500376       -13.6159 
  28   2.0000      -0.474916       -12.9231 
  29   2.0000      -0.459973       -12.5165 
  30   2.0000      -0.411914       -11.2087 
  31   2.0000      -0.386937       -10.5291 
  32   2.0000      -0.336098        -9.1457 
  33   2.0000      -0.333627        -9.0784 
  34   2.0000      -0.316560        -8.6140 
  35   2.0000      -0.312382        -8.5004 
  36   2.0000      -0.291424        -7.9301 
  37   2.0000      -0.222354        -6.0506 
  38   0.0000      -0.133055        -3.6206 
  39   0.0000      -0.118729        -3.2308 
  40   0.0000      -0.112293        -3.0556 
  41   0.0000      -0.034414        -0.9364 
  42   0.0000      -0.021650        -0.5891 
  43   0.0000      -0.007541        -0.2052 
  44   0.0000       0.001238         0.0337 
  45   0.0000       0.015454         0.4205 
  46   0.0000       0.027252         0.7416 
  47   0.0000       0.032413         0.8820 
  48   0.0000       0.032451         0.8830 
  49   0.0000       0.048576         1.3218 
  50   0.0000       0.057227         1.5572 
  51   0.0000       0.061999         1.6871 
  52   0.0000       0.074611         2.0303 
  53   0.0000       0.075593         2.0570 
  54   0.0000       0.081473         2.2170 
  55   0.0000       0.087180         2.3723 
  56   0.0000       0.089404         2.4328 
  57   0.0000       0.100436         2.7330 
  58   0.0000       0.106002         2.8844 
  59   0.0000       0.106807         2.9064 
  60   0.0000       0.112940         3.0732 
  61   0.0000       0.113011         3.0752 
  62   0.0000       0.114930         3.1274 
  63   0.0000       0.119095         3.2407 
  64   0.0000       0.125240         3.4080 
  65   0.0000       0.131197         3.5701 
  66   0.0000       0.137724         3.7477 
  67   0.0000       0.151508         4.1228 
  68   0.0000       0.152619         4.1530 
  69   0.0000       0.165458         4.5024 
  70   0.0000       0.168736         4.5915 
  71   0.0000       0.170826         4.6484 
  72   0.0000       0.179019         4.8714 
  73   0.0000       0.183034         4.9806 
  74   0.0000       0.191833         5.2201 
  75   0.0000       0.195563         5.3215 
  76   0.0000       0.199713         5.4345 
  77   0.0000       0.208542         5.6747 
  78   0.0000       0.216814         5.8998 
  79   0.0000       0.222708         6.0602 
  80   0.0000       0.231409         6.2970 
  81   0.0000       0.233002         6.3403 
  82   0.0000       0.238829         6.4989 
  83   0.0000       0.241088         6.5603 
  84   0.0000       0.247341         6.7305 
  85   0.0000       0.257484         7.0065 
  86   0.0000       0.260551         7.0900 
  87   0.0000       0.262658         7.1473 
  88   0.0000       0.264540         7.1985 
  89   0.0000       0.275224         7.4892 
  90   0.0000       0.283995         7.7279 
  91   0.0000       0.291378         7.9288 
  92   0.0000       0.292629         7.9628 
  93   0.0000       0.299251         8.1430 
  94   0.0000       0.305267         8.3067 
  95   0.0000       0.307700         8.3730 
  96   0.0000       0.318651         8.6709 
  97   0.0000       0.321723         8.7545 
  98   0.0000       0.331019         9.0075 
  99   0.0000       0.336007         9.1432 
 100   0.0000       0.346848         9.4382 
 101   0.0000       0.371823        10.1178 
 102   0.0000       0.376314        10.2400 
 103   0.0000       0.386089        10.5060 
 104   0.0000       0.407890        11.0992 
 105   0.0000       0.412843        11.2340 
 106   0.0000       0.420959        11.4549 
 107   0.0000       0.421164        11.4605 
 108   0.0000       0.428243        11.6531 
 109   0.0000       0.434786        11.8311 
 110   0.0000       0.450679        12.2636 
 111   0.0000       0.460451        12.5295 
 112   0.0000       0.472076        12.8458 
 113   0.0000       0.478262        13.0142 
 114   0.0000       0.482079        13.1180 
 115   0.0000       0.498589        13.5673 
 116   0.0000       0.511640        13.9224 
 117   0.0000       0.520955        14.1759 
 118   0.0000       0.533087        14.5060 
 119   0.0000       0.534122        14.5342 
 120   0.0000       0.542254        14.7555 
 121   0.0000       0.542504        14.7623 
 122   0.0000       0.545290        14.8381 
 123   0.0000       0.564085        15.3495 
 124   0.0000       0.581125        15.8132 
 125   0.0000       0.583846        15.8873 
 126   0.0000       0.593825        16.1588 
 127   0.0000       0.609002        16.5718 
 128   0.0000       0.618097        16.8193 
 129   0.0000       0.620085        16.8734 
 130   0.0000       0.633961        17.2509 
 131   0.0000       0.643882        17.5209 
 132   0.0000       0.646658        17.5965 
 133   0.0000       0.662450        18.0262 
 134   0.0000       0.676501        18.4085 
 135   0.0000       0.681542        18.5457 
 136   0.0000       0.685872        18.6635 
 137   0.0000       0.689950        18.7745 
 138   0.0000       0.700630        19.0651 
 139   0.0000       0.701829        19.0977 
 140   0.0000       0.707201        19.2439 
 141   0.0000       0.720524        19.6064 
 142   0.0000       0.729528        19.8515 
 143   0.0000       0.734163        19.9776 
 144   0.0000       0.739002        20.1093 
 145   0.0000       0.753459        20.5027 
 146   0.0000       0.753960        20.5163 
 147   0.0000       0.774839        21.0845 
 148   0.0000       0.785632        21.3781 
 149   0.0000       0.802599        21.8398 
 150   0.0000       0.805446        21.9173 
 151   0.0000       0.824537        22.4368 
 152   0.0000       0.836683        22.7673 
 153   0.0000       0.843570        22.9547 
 154   0.0000       0.849858        23.1258 
 155   0.0000       0.867289        23.6001 
 156   0.0000       0.873299        23.7637 
 157   0.0000       0.879225        23.9249 
 158   0.0000       0.890134        24.2218 
 159   0.0000       0.924097        25.1460 
 160   0.0000       0.948602        25.8128 
 161   0.0000       0.953177        25.9373 
 162   0.0000       0.975712        26.5505 
 163   0.0000       0.996589        27.1186 
 164   0.0000       1.008589        27.4451 
 165   0.0000       1.042500        28.3679 
 166   0.0000       1.045883        28.4599 
 167   0.0000       1.045916        28.4608 
 168   0.0000       1.061176        28.8761 
 169   0.0000       1.075529        29.2666 
 170   0.0000       1.086374        29.5617 
 171   0.0000       1.111710        30.2512 
 172   0.0000       1.114927        30.3387 
 173   0.0000       1.118640        30.4397 
 174   0.0000       1.127664        30.6853 
 175   0.0000       1.148587        31.2546 
 176   0.0000       1.181265        32.1439 
 177   0.0000       1.181872        32.1604 
 178   0.0000       1.210317        32.9344 
 179   0.0000       1.230891        33.4943 
 180   0.0000       1.237543        33.6752 
 181   0.0000       1.248287        33.9676 
 182   0.0000       1.282596        34.9012 
 183   0.0000       1.287270        35.0284 
 184   0.0000       1.311103        35.6769 
 185   0.0000       1.312632        35.7185 
 186   0.0000       1.337974        36.4081 
 187   0.0000       1.341965        36.5167 
 188   0.0000       1.345018        36.5998 
 189   0.0000       1.363909        37.1139 
 190   0.0000       1.379012        37.5248 
 191   0.0000       1.383143        37.6372 
 192   0.0000       1.395243        37.9665 
 193   0.0000       1.413709        38.4690 
 194   0.0000       1.420433        38.6519 
 195   0.0000       1.432919        38.9917 
 196   0.0000       1.437524        39.1170 
 197   0.0000       1.459569        39.7169 
 198   0.0000       1.464208        39.8431 
 199   0.0000       1.498001        40.7627 
 200   0.0000       1.502906        40.8962 
 201   0.0000       1.503759        40.9194 
 202   0.0000       1.517965        41.3059 
 203   0.0000       1.537896        41.8483 
 204   0.0000       1.569965        42.7209 
 205   0.0000       1.594708        43.3942 
 206   0.0000       1.598482        43.4969 
 207   0.0000       1.628186        44.3052 
 208   0.0000       1.644562        44.7508 
 209   0.0000       1.662738        45.2454 
 210   0.0000       1.686587        45.8944 
 211   0.0000       1.702259        46.3208 
 212   0.0000       1.706130        46.4262 
 213   0.0000       1.726412        46.9781 
 214   0.0000       1.765508        48.0419 
 215   0.0000       1.771937        48.2169 
 216   0.0000       1.791098        48.7383 
 217   0.0000       1.805713        49.1360 
 218   0.0000       1.819298        49.5056 
 219   0.0000       1.852661        50.4135 
 220   0.0000       1.882002        51.2119 
 221   0.0000       1.885085        51.2958 
 222   0.0000       1.905305        51.8460 
 223   0.0000       1.917681        52.1827 
 224   0.0000       1.918598        52.2077 
 225   0.0000       1.976117        53.7729 
 226   0.0000       1.989754        54.1439 
 227   0.0000       1.995839        54.3095 
 228   0.0000       2.018508        54.9264 
 229   0.0000       2.031292        55.2743 
 230   0.0000       2.043330        55.6018 
 231   0.0000       2.055961        55.9455 
 232   0.0000       2.069227        56.3065 
 233   0.0000       2.088415        56.8287 
 234   0.0000       2.117552        57.6215 
 235   0.0000       2.159306        58.7577 
 236   0.0000       2.176167        59.2165 
 237   0.0000       2.178954        59.2924 
 238   0.0000       2.220413        60.4205 
 239   0.0000       2.250934        61.2510 
 240   0.0000       2.263115        61.5825 
 241   0.0000       2.267464        61.7008 
 242   0.0000       2.294389        62.4335 
 243   0.0000       2.322427        63.1964 
 244   0.0000       2.332659        63.4749 
 245   0.0000       2.356251        64.1168 
 246   0.0000       2.357599        64.1535 
 247   0.0000       2.392212        65.0954 
 248   0.0000       2.450808        66.6899 
 249   0.0000       2.460181        66.9449 
 250   0.0000       2.500487        68.0417 
 251   0.0000       2.589542        70.4650 
 252   0.0000       2.601891        70.8011 
 253   0.0000       2.625772        71.4509 
 254   0.0000       2.748770        74.7978 
 255   0.0000       2.757748        75.0421 
 256   0.0000       2.804233        76.3071 
 257   0.0000       2.830925        77.0334 
 258   0.0000       2.842094        77.3373 
 259   0.0000       2.897133        78.8350 
 260   0.0000       2.974515        80.9407 
 261   0.0000       3.070321        83.5477 
 262   0.0000       3.111442        84.6667 
 263   0.0000       3.130298        85.1797 
 264   0.0000       3.247789        88.3768 
 265   0.0000       3.276714        89.1639 
 266   0.0000       3.278392        89.2096 
 267   0.0000       3.280495        89.2668 
 268   0.0000       3.349923        91.1560 
 269   0.0000       3.360998        91.4574 
 270   0.0000       3.378853        91.9433 
 271   0.0000       3.386396        92.1485 
 272   0.0000       3.436561        93.5136 
 273   0.0000       3.487510        94.9000 
 274   0.0000       3.586049        97.5814 
 275   0.0000       3.590749        97.7092 
 276   0.0000       3.711602       100.9978 
 277   0.0000       3.780023       102.8597 
 278   0.0000       3.804743       103.5323 
 279   0.0000       4.127464       112.3140 

                    ********************************
                    * MULLIKEN POPULATION ANALYSIS *
                    ********************************

-----------------------
MULLIKEN ATOMIC CHARGES
-----------------------
   0 C :    0.680130
   1 C :   -1.431809
   2 C :    0.982615
   3 C :    1.078005
   4 C :    0.990022
   5 C :    0.914139
   6 H :   -0.671959
   7 H :   -0.793898
   8 N :    0.519572
   9 N :   -0.777686
  10 H :   -0.797899
  11 N :    0.659847
  12 O :   -0.677657
  13 O :   -0.673421
Sum of atomic charges:   -0.0000000

--------------------------------
MULLIKEN REDUCED ORBITAL CHARGES
--------------------------------
  0 C s       :     3.094006  s :     3.094006
      pz      :     0.810706  p :     2.250348
      px      :     0.573986
      py      :     0.865656
      dz2     :    -0.011679  d :    -0.024484
      dxz     :     0.011456
      dyz     :    -0.013243
      dx2y2   :     0.043692
      dxy     :    -0.054710
  1 C s       :     4.238282  s :     4.238282
      pz      :     0.954520  p :     3.176586
      px      :     1.130346
      py      :     1.091719
      dz2     :     0.012186  d :     0.016941
      dxz     :    -0.012066
      dyz     :     0.011194
      dx2y2   :     0.010741
      dxy     :    -0.005114
  2 C s       :     3.317263  s :     3.317263
      pz      :     0.622444  p :     1.614312
      px      :     0.458160
      py      :     0.533708
      dz2     :     0.009424  d :     0.085809
      dxz     :     0.028581
      dyz     :     0.037157
      dx2y2   :     0.006475
      dxy     :     0.004173
  3 C s       :     3.122839  s :     3.122839
      pz      :     0.705348  p :     2.145975
      px      :     0.759841
      py      :     0.680786
      dz2     :    -0.024356  d :    -0.346819
      dxz     :    -0.084647
      dyz     :    -0.059144
      dx2y2   :    -0.099996
      dxy     :    -0.078677
  4 C s       :     3.578265  s :     3.578265
      pz      :     0.537600  p :     1.457908
      px      :     0.238695
      py      :     0.681613
      dz2     :     0.011669  d :    -0.026194
      dxz     :     0.028534
      dyz     :    -0.039353
      dx2y2   :    -0.004986
      dxy     :    -0.022059
  5 C s       :     3.241922  s :     3.241922
      pz      :     0.795441  p :     2.128393
      px      :     0.656210
      py      :     0.676742
      dz2     :    -0.011558  d :    -0.284454
      dxz     :    -0.091612
      dyz     :    -0.027586
      dx2y2   :    -0.046798
      dxy     :    -0.106900
  6 H s       :     1.686548  s :     1.686548
      pz      :     0.009144  p :    -0.014589
      px      :    -0.019456
      py      :    -0.004277
  7 H s       :     1.782970  s :     1.782970
      pz      :     0.007019  p :     0.010929
      px      :    -0.004602
      py      :     0.008512
  8 N s       :     3.515879  s :     3.515879
      pz      :     1.139861  p :     2.761739
      px      :     0.548686
      py      :     1.073192
      dz2     :     0.023719  d :     0.202809
      dxz     :     0.061294
      dyz     :     0.012294
      dx2y2   :     0.043849
      dxy     :     0.061653
  9 N s       :     4.552687  s :     4.552687
      pz      :     0.977995  p :     3.156589
      px      :     1.212959
      py      :     0.965635
      dz2     :     0.006551  d :     0.068409
      dxz     :     0.022330
      dyz     :     0.003522
      dx2y2   :     0.014570
      dxy     :     0.021437
 10 H s       :     1.808886  s :     1.808886
      pz      :    -0.001323  p :    -0.010987
      px      :     0.004815
      py      :    -0.014479
 11 N s       :     3.371788  s :     3.371788
      pz      :     0.942884  p :     2.736349
      px      :     0.771727
      py      :     1.021738
      dz2     :     0.046624  d :     0.232016
      dxz     :     0.041130
      dyz     :     0.029498
      dx2y2   :     0.051643
      dxy     :     0.063122
 12 O s       :     4.280879  s :     4.280879
      pz      :     1.577030  p :     4.356511
      px      :     1.115003
      py      :     1.664477
      dz2     :     0.005209  d :     0.040268
      dxz     :     0.012540
      dyz     :     0.002740
      dx2y2   :     0.011607
      dxy     :     0.008171
 13 O s       :     4.271051  s :     4.271051
      pz      :     1.249584  p :     4.362458
      px      :     1.655951
      py      :     1.456922
      dz2     :     0.015041  d :     0.039912
      dxz     :     0.007648
      dyz     :     0.007034
      dx2y2   :     0.002508
      dxy     :     0.007681


                     *******************************
                     * LOEWDIN POPULATION ANALYSIS *
                     *******************************

----------------------
LOEWDIN ATOMIC CHARGES
----------------------
   0 C :   -0.057957
   1 C :    0.062015
   2 C :   -0.292820
   3 C :    0.101132
   4 C :   -0.136503
   5 C :    0.067282
   6 H :   -0.010087
   7 H :    0.010633
   8 N :    0.017575
   9 N :    0.340567
  10 H :    0.006749
  11 N :   -0.391664
  12 O :    0.146301
  13 O :    0.136777

-------------------------------
LOEWDIN REDUCED ORBITAL CHARGES
-------------------------------
  0 C s       :     2.640423  s :     2.640423
      pz      :     0.839761  p :     2.693246
      px      :     0.967299
      py      :     0.886186
      dz2     :     0.098147  d :     0.724288
      dxz     :     0.148432
      dyz     :     0.098617
      dx2y2   :     0.144910
      dxy     :     0.234181
  1 C s       :     2.791404  s :     2.791404
      pz      :     0.753860  p :     2.598942
      px      :     0.927477
      py      :     0.917604
      dz2     :     0.100401  d :     0.547639
      dxz     :     0.132616
      dyz     :     0.083591
      dx2y2   :     0.112902
      dxy     :     0.118130
  2 C s       :     2.599314  s :     2.599314
      pz      :     0.923577  p :     2.634252
      px      :     0.762738
      py      :     0.947938
      dz2     :     0.163719  d :     1.059254
      dxz     :     0.205759
      dyz     :     0.208466
      dx2y2   :     0.290866
      dxy     :     0.190445
  3 C s       :     2.609619  s :     2.609619
      pz      :     0.836943  p :     2.621771
      px      :     0.922707
      py      :     0.862120
      dz2     :     0.074545  d :     0.667478
      dxz     :     0.150450
      dyz     :     0.117118
      dx2y2   :     0.169656
      dxy     :     0.155710
  4 C s       :     2.572155  s :     2.572155
      pz      :     0.872838  p :     2.606352
      px      :     0.916205
      py      :     0.817309
      dz2     :     0.160086  d :     0.957996
      dxz     :     0.207786
      dyz     :     0.157593
      dx2y2   :     0.203743
      dxy     :     0.228788
  5 C s       :     2.619842  s :     2.619842
      pz      :     0.825187  p :     2.623414
      px      :     0.919135
      py      :     0.879093
      dz2     :     0.139144  d :     0.689461
      dxz     :     0.104898
      dyz     :     0.147576
      dx2y2   :     0.155661
      dxy     :     0.142181
  6 H s       :     0.744497  s :     0.744497
      pz      :     0.101134  p :     0.265590
      px      :     0.083113
      py      :     0.081343
  7 H s       :     0.717284  s :     0.717284
      pz      :     0.099865  p :     0.272083
      px      :     0.078182
      py      :     0.094035
  8 N s       :     2.937592  s :     2.937592
      pz      :     1.019596  p :     3.292048
      px      :     1.251567
      py      :     1.020885
      dz2     :     0.092262  d :     0.752785
      dxz     :     0.209793
      dyz     :     0.040820
      dx2y2   :     0.203960
      dxy     :     0.205951
  9 N s       :     3.244376  s :     3.244376
      pz      :     0.926495  p :     3.132678
      px      :     1.282647
      py      :     0.923536
      dz2     :     0.035515  d :     0.282379
      dxz     :     0.071099
      dyz     :     0.011837
      dx2y2   :     0.086989
      dxy     :     0.076939
 10 H s       :     0.721037  s :     0.721037
      pz      :     0.070709  p :     0.272214
      px      :     0.124819
      py      :     0.076686
 11 N s       :     2.799901  s :     2.799901
      pz      :     1.029521  p :     3.161277
      px      :     1.085491
      py      :     1.046265
      dz2     :     0.261604  d :     1.430486
      dxz     :     0.332929
      dyz     :     0.204582
      dx2y2   :     0.302993
      dxy     :     0.328379
 12 O s       :     3.384050  s :     3.384050
      pz      :     1.446623  p :     4.248767
      px      :     1.281870
      py      :     1.520274
      dz2     :     0.029875  d :     0.220882
      dxz     :     0.060416
      dyz     :     0.010854
      dx2y2   :     0.061603
      dxy     :     0.058135
 13 O s       :     3.383977  s :     3.383977
      pz      :     1.297772  p :     4.259092
      px      :     1.535156
      py      :     1.426163
      dz2     :     0.048359  d :     0.220154
      dxz     :     0.047444
      dyz     :     0.058586
      dx2y2   :     0.032380
      dxy     :     0.033385


                      *****************************
                      * MAYER POPULATION ANALYSIS *
                      *****************************

  NA   - Mulliken gross atomic population
  ZA   - Total nuclear charge
  QA   - Mulliken gross atomic charge
  VA   - Mayer's total valence
  BVA  - Mayer's bonded valence
  FA   - Mayer's free valence

  ATOM       NA         ZA         QA         VA         BVA        FA
  0 C      5.3199     6.0000     0.6801     3.1604     3.1604     0.0000
  1 C      7.4318     6.0000    -1.4318     1.6059     1.6059     0.0000
  2 C      5.0174     6.0000     0.9826     2.5177     2.5177    -0.0000
  3 C      4.9220     6.0000     1.0780     1.4513     1.4513    -0.0000
  4 C      5.0100     6.0000     0.9900     1.1858     1.1858     0.0000
  5 C      5.0859     6.0000     0.9141     1.9937     1.9937     0.0000
  6 H      1.6720     1.0000    -0.6720     0.3591     0.3591     0.0000
  7 H      1.7939     1.0000    -0.7939     0.2579     0.2579     0.0000
  8 N      6.4804     7.0000     0.5196     1.9433     1.9433    -0.0000
  9 N      7.7777     7.0000    -0.7777     1.1505     1.1505    -0.0000
 10 H      1.7979     1.0000    -0.7979     0.1573     0.1573    -0.0000
 11 N      6.3402     7.0000     0.6598     2.2540     2.2540     0.0000
 12 O      8.6777     8.0000    -0.6777     1.2673     1.2673     0.0000
 13 O      8.6734     8.0000    -0.6734     1.3040     1.3040     0.0000

  Mayer bond orders larger than 0.1
B(  0-C ,  1-C ) :   1.1321 B(  0-C ,  2-C ) :   0.2493 B(  0-C ,  3-C ) :   0.2959 
B(  0-C ,  4-C ) :  -0.5627 B(  0-C ,  5-C ) :   1.4592 B(  0-C ,  6-H ) :   0.1566 
B(  0-C , 10-H ) :   0.4072 B(  1-C ,  2-C ) :   0.5327 B(  1-C ,  4-C ) :  -0.2810 
B(  1-C ,  5-C ) :   0.2126 B(  1-C ,  6-H ) :  -0.2246 B(  2-C ,  3-C ) :   1.0039 
B(  2-C ,  7-H ) :   0.6309 B(  2-C ,  8-N ) :   0.7743 B(  2-C ,  9-N ) :  -0.4942 
B(  3-C ,  4-C ) :   0.6814 B(  3-C ,  7-H ) :  -0.3345 B(  3-C ,  8-N ) :  -0.1782 
B(  3-C ,  9-N ) :   0.1607 B(  3-C , 11-N ) :  -0.1257 B(  4-C ,  5-C ) :   0.3253 
B(  4-C , 11-N ) :   0.6399 B(  4-C , 12-O ) :   0.1643 B(  4-C , 13-O ) :   0.1130 
B(  5-C ,  6-H ) :   0.4291 B(  5-C , 10-H ) :  -0.3146 B(  7-H ,  8-N ) :  -0.1126 
B(  8-N ,  9-N ) :   1.2969 B( 11-N , 12-O ) :   0.8846 B( 11-N , 13-O ) :   0.9267 
B( 12-O , 13-O ) :   0.2924 

-------
TIMINGS
-------

Total SCF time: 0 days 0 hours 0 min 54 sec 

Total time                  ....      54.881 sec
Sum of individual times     ....      54.150 sec  ( 98.7%)

Fock matrix formation       ....      42.839 sec  ( 78.1%)
  XC integration            ....       6.753 sec  ( 15.8% of F)
    Basis function eval.    ....       1.353 sec  ( 20.0% of XC)
    Density eval.           ....       1.448 sec  ( 21.4% of XC)
    XC-Functional eval.     ....       0.170 sec  (  2.5% of XC)
    XC-Potential eval.      ....       2.099 sec  ( 31.1% of XC)
Diagonalization             ....       0.226 sec  (  0.4%)
Density matrix formation    ....       0.222 sec  (  0.4%)
Population analysis         ....       0.040 sec  (  0.1%)
Initial guess               ....       0.542 sec  (  1.0%)
Orbital Transformation      ....       0.000 sec  (  0.0%)
Orbital Orthonormalization  ....       0.000 sec  (  0.0%)
DIIS solution               ....       0.592 sec  (  1.1%)
SOSCF solution              ....       0.384 sec  (  0.7%)
Grid generation             ....       9.305 sec  ( 17.0%)

-------------------------   --------------------
FINAL SINGLE POINT ENERGY      -544.977489133083
-------------------------   --------------------



------------------------------------------------------------------------------- 
                         Nudged Elastic Band Calculation                       
------------------------------------------------------------------------------- 

Number of images (incl. end points)     ....  14
Number of intermediate images           ....  12
Number of optimized images              ....  12
Optimization of end points before NEB   ....  NO
Number of atoms                         ....  14
Number of (active) degrees of freedom   ....  42
Constrained atoms                       ....  None

-----------------------------------------
  REACTANT (ANGSTROEM)
-----------------------------------------
C     -1.878330     0.120887    -1.094501 
C     -0.553541    -0.267927    -0.727328 
C     -0.072963     0.592227     0.272473 
C     -0.667286     1.701841     0.917230 
C     -1.945362     1.976486     0.476015 
C     -2.561117     1.193769    -0.528561 
H     -2.397473    -0.452893    -1.866902 
H     -0.189174     2.300799     1.689643 
N      1.234974     0.265247     0.684176 
N      2.267865    -0.056199     0.954546 
H     -3.571979     1.456046    -0.838526 
N     -2.671537     3.110181     1.071512 
O     -3.807271     3.335052     0.663560 
O     -2.098117     3.762672     1.941964 

-----------------------------------------
  PRODUCT (ANGSTROEM)
-----------------------------------------
C     -2.384617     0.156769    -1.331932 
C     -1.095058    -0.163537    -0.923585 
C     -0.411315     0.422132    -0.053549 
C     -0.763542     1.518602     0.707616 
C     -2.075982     1.916438     0.354136 
C     -2.866571     1.273964    -0.621742 
H     -2.977665    -0.352905    -2.088027 
H     -0.186442     2.039884     1.465206 
N      2.626096     0.552549     1.673207 
N      3.472987    -0.139112     1.520344 
H     -3.864467     1.660402    -0.817889 
N     -2.648480     3.084452     1.060040 
O     -3.787005     3.436505     0.763216 
O     -1.949239     3.632049     1.908260 



----------------------
NEB settings
----------------------
Method type                             ....  climbing image
Threshold for climbing image            ....  2.00e-02 Eh/Bohr 
Free endpoints                          ....  off 
Tangent type                            ....  improved 
Number of intermediate images           ....  12 
Number of images free to move           ....  12 
Spring type for image distribution      ....  distance between adjacent images 
Spring constant                         ....  1.00e-01 Eh/Bohr^2 
Spring force perp. to the path          ....  tan 
Generation of initial path              ....  image dependent pair potential 
Initial path via TS guess               ....  off 

Minimization of RMSD: Rotation          ....  always 
Minimization of RMSD: Translation type  ....  centroid 
Center fixed to origin                  ....  true 

Reparametrization of the path           ....  on reset 
               Every 0 iterations
               Type of interpolation    ....  linear
Convergence thresholds:
Convergence monitored for               ....  all images
Scaling factor                          ....  100.00

Convergence parameters for regular images:
               Max(|Fp|)                ....  1.00e-01 Eh/Bohr
               RMS(Fp)                  ....  5.00e-02 Eh/Bohr

Convergence parameters for climbing image:
               Max(|F|)                 ....  1.00e-03 Eh/Bohr
               RMS(F)                   ....  5.00e-04 Eh/Bohr
Optimization method:
Method                                  ....  L-BFGS (global)
Max. iterations                         ....  1000 
Step size                               ....  1.00 
Maximum allowed step size               ....  0.10 Bohr
Turn on L-BFGS                          ....  0.0000 Eh/Bohr

LBFGS parameters: 
               Memory                   ....  7 
Generation of  the initial path:
Minimize RMSD between reactant and product configurations     .... done
       RMSD before minimization         ....  1.2991 Bohr
       RMSD after minimization          ....  1.2976 Bohr
Performing linear interpolation         ....  done
Interpolation using                     ....  IDPP (Image Dependent Pair Potential)
IDPP-Settings:
       Convergence tolerance            ....  0.0100 1/Ang.^3
       Max. numer of iterations         ....    7000
       Spring constant                  ....  1.0000 1/Ang.^4
       Time step                        ....  0.0100 fs
       Max. movement per iteration      ....  0.0500 Ang.
       Full print                       ....  false 
IDPP successfuly converged in 81 iterations
Displacement along initial path:              4.8564 Bohr
Writing initial trajectory to file      ....  3-NO2-C6H3-N2-v1-NEB-TS_initial_path.trj



----------------------
NEB OPTIMIZATION      
----------------------

Following output files will be written:
Energy profile during opt. written to    ....  3-NO2-C6H3-N2-v1-NEB-TS.interp
Optimization log-file                    ....  3-NO2-C6H3-N2-v1-NEB-TS.log
Current trajectory will be written to    ....  3-NO2-C6H3-N2-v1-NEB-TS_MEP.trj
       and to allxyz file                ....  3-NO2-C6H3-N2-v1-NEB-TS_MEP.allxyz
       and individual images to xyz file ....  3-NO2-C6H3-N2-v1-NEB-TS_im{NIm}.xyz
Trajectory history will be written to    ....  3-NO2-C6H3-N2-v1-NEB-TS_MEP_ALL.trj
Converged CI will be written to          ....  3-NO2-C6H3-N2-v1-NEB-TS_CI-NEB_converged.xyz
Converged TS will be written to          ....  3-NO2-C6H3-N2-v1-NEB-TS.xyz

Single point energy and gradient calculation of reactant and
product configurations (have to be performed only once)
Properties of fixed NEB end points:
               Reactant:
                         E               ....   -544.977489 Eh
                         RMS(F)          ....      0.000284 Eh/Bohr
                         MAX(|F|)        ....      0.001263 Eh/Bohr
               Product:
                         E               ....   -545.014499 Eh
                         RMS(F)          ....      0.000248 Eh/Bohr
                         MAX(|F|)        ....      0.000843 Eh/Bohr



Starting iterations:

Optim.  Iteration  HEI  E(HEI)-E(0)  max(|Fp|)   RMS(Fp)    dS
Switch-on CI threshold               0.020000 
List of participating nodes    ...  3-NO2-C6H3-N2-v1-NEB-TS.hostnames
LBFGS(G)     0      2    0.008539    0.075874   0.024802  4.8564       
LBFGS(G)     1      2    0.008530    0.075820   0.024770  4.8564       
LBFGS(G)     2      1    0.004557    0.036012   0.011376  4.8740       
LBFGS(G)     3      1    0.004659    0.039236   0.011048  4.8815       
LBFGS(G)     4      1    0.004147    0.016314   0.005297  4.8811       

Image  1 will be converted to a climbing image in the next iteration (max(|Fp|) < 0.0200) 

Optim.  Iteration  CI   E(CI)-E(0)   max(|Fp|)   RMS(Fp)    dS     max(|FCI|)   RMS(FCI)
Convergence thresholds               0.100000   0.050000            0.001000    0.000500 
LBFGS(G)     5      1    0.004056    0.013555   0.004533  4.8831    0.015871    0.005334       
LBFGS(G)     6      1    0.004110    0.011974   0.004307  4.8873    0.019839    0.006758       
LBFGS(G)     7      1    0.004428    0.023225   0.007102  4.9595    0.026332    0.009872       
LBFGS(G)     8      1    0.008847    0.035770   0.009552  5.0156    0.116988    0.047913       
LBFGS(G)     9      1    0.004199    0.008405   0.002753  4.9648    0.008917    0.003291       
LBFGS(G)    10      1    0.004187    0.008731   0.002323  4.9660    0.005831    0.002292       
LBFGS(G)    11      1    0.004256    0.009647   0.002967  4.9889    0.015384    0.006027       
LBFGS(G)    12      1    0.004103    0.040075   0.006411  5.0346    0.010721    0.004322       
LBFGS(G)    13      1    0.003971    0.011002   0.003510  5.0644    0.007990    0.003399       
LBFGS(G)    14      1    0.003892    0.014979   0.003413  5.0776    0.004244    0.002279       
LBFGS(G)    15      1    0.003749    0.027872   0.004072  5.1140    0.004111    0.002233       
LBFGS(G)    16      1    0.003788    0.041600   0.008551  5.2031    0.027076    0.009584       
LBFGS(G)    17      1    0.003549    0.015969   0.003585  5.2170    0.007973    0.003015       
LBFGS(G)    18      1    0.003528    0.007558   0.002997  5.2353    0.006948    0.002986       
LBFGS(G)    19      1    0.003520    0.025058   0.003783  5.2726    0.010891    0.003801       
LBFGS(G)    20      1    0.003544    0.053246   0.006670  5.4200    0.015316    0.005470       
LBFGS(G)    21      1    0.003583    0.027181   0.006672  5.5732    0.012865    0.004752       
LBFGS(G)    22      1    0.003626    0.030279   0.005864  5.7394    0.011531    0.004749       
LBFGS(G)    23      1    0.003555    0.009962   0.003698  5.7510    0.003870    0.002472       
LBFGS(G)    24      1    0.003527    0.020032   0.003174  5.7884    0.009439    0.003489       
LBFGS(G)    25      1    0.003478    0.011133   0.002555  5.8165    0.003325    0.001633       
LBFGS(G)    26      1    0.003451    0.040525   0.006905  5.8806    0.008055    0.003489       
LBFGS(G)    27      1    0.003398    0.006217   0.002872  5.9019    0.001861    0.001575       
LBFGS(G)    28      1    0.003379    0.010634   0.002524  5.8937    0.002369    0.001373       
LBFGS(G)    29      1    0.003355    0.015867   0.002569  5.8928    0.003155    0.001470       
LBFGS(G)    30      1    0.003354    0.054613   0.007112  5.8912    0.005141    0.002362       
LBFGS(G)    31      1    0.003338    0.006925   0.002009  5.8882    0.002121    0.001210       
LBFGS(G)    32      1    0.003331    0.004022   0.001611  5.8874    0.001203    0.000923       
LBFGS(G)    33      1    0.003313    0.016724   0.003009  5.8934    0.004325    0.001680       
LBFGS(G)    34      1    0.003306    0.012382   0.002999  5.9350    0.003794    0.001802       
LBFGS(G)    35      1    0.003289    0.048071   0.006401  6.0539    0.003793    0.001508       
LBFGS(G)    36      1    0.003281    0.009684   0.002298  5.9907    0.002833    0.001088       
LBFGS(G)    37      1    0.003276    0.003741   0.001265  5.9924    0.001001    0.000643       
LBFGS(G)    38      1    0.003273    0.005683   0.001563  5.9926    0.001832    0.000750       
LBFGS(G)    39      1    0.003263    0.011805   0.002874  5.9996    0.002596    0.001199       
LBFGS(G)    40      1    0.003272    0.025216   0.003911  6.0530    0.006456    0.002866       
LBFGS(G)    41      1    0.003249    0.012079   0.002374  6.0449    0.002991    0.001488       
LBFGS(G)    42      1    0.003244    0.010973   0.002030  6.0489    0.003756    0.001675       
LBFGS(G)    43      1    0.003246    0.013456   0.003140  6.0715    0.001633    0.001191       
LBFGS(G)    44      1    0.003248    0.022687   0.004280  6.0668    0.005816    0.002407       
LBFGS(G)    45      1    0.003233    0.008541   0.001804  6.0538    0.001829    0.000736       
LBFGS(G)    46      1    0.003232    0.004351   0.001005  6.0463    0.001086    0.000456       
LBFGS(G)    47      1    0.003232    0.005508   0.001153  6.0271    0.000997    0.000613       
LBFGS(G)    48      1    0.003232    0.005578   0.001244  6.0097    0.000917    0.000567       
LBFGS(G)    49      1    0.003230    0.014605   0.002980  5.9978    0.001335    0.000818       
LBFGS(G)    50      1    0.003225    0.005728   0.001280  5.9903    0.000583    0.000369       

                                .--------------------.
          ----------------------| CI-NEB convergence |-------------------------
          Item                value                   Tolerance       Converged
          ---------------------------------------------------------------------
          RMS(Fp)             0.0012795204            0.0500000000      YES
          MAX(|Fp|)           0.0057275360            0.1000000000      YES
          RMS(FCI)            0.0003691061            0.0005000000      YES
          MAX(|FCI|)          0.0005834566            0.0010000000      YES
          ---------------------------------------------------------------------

The elastic band and climbing image have converged succesfully to a MEP in 50 iterations!


                    *********************H U R R A Y*********************
                    ***        THE NEB OPTIMIZATION HAS CONVERGED     ***
                    *****************************************************



---------------------------------------------------------------
                         PATH SUMMARY              
---------------------------------------------------------------
All forces in Eh/Bohr.

Image Dist.(Ang.)    E(Eh)   dE(kcal/mol)  max(|Fp|)  RMS(Fp)
  0     0.000    -544.97749      0.00       0.00112   0.00046
  1     0.260    -544.97426      2.02       0.00042   0.00035 <= CI
  2     0.513    -544.98196     -2.80       0.00331   0.00175
  3     0.767    -544.99378    -10.22       0.00499   0.00292
  4     0.992    -545.00164    -15.16       0.00248   0.00177
  5     1.218    -545.00710    -18.58       0.00177   0.00123
  6     1.463    -545.01041    -20.66       0.00144   0.00109
  7     1.699    -545.01222    -21.79       0.00182   0.00091
  8     1.945    -545.01288    -22.20       0.00169   0.00092
  9     2.192    -545.01333    -22.49       0.00160   0.00084
 10     2.438    -545.01377    -22.77       0.00097   0.00054
 11     2.683    -545.01418    -23.02       0.00047   0.00028
 12     2.928    -545.01443    -23.18       0.00014   0.00012
 13     3.170    -545.01450    -23.22       0.00084   0.00043

Straight line distance between images along the path:
        D( 0- 1) =   0.2604 Ang.
        D( 1- 2) =   0.2526 Ang.
        D( 2- 3) =   0.2536 Ang.
        D( 3- 4) =   0.2253 Ang.
        D( 4- 5) =   0.2262 Ang.
        D( 5- 6) =   0.2449 Ang.
        D( 6- 7) =   0.2360 Ang.
        D( 7- 8) =   0.2462 Ang.
        D( 8- 9) =   0.2467 Ang.
        D( 9-10) =   0.2458 Ang.
        D(10-11) =   0.2457 Ang.
        D(11-12) =   0.2445 Ang.
        D(12-13) =   0.2421 Ang.

---------------------------------------------------------------
               INFORMATION ABOUT SADDLE POINT     
---------------------------------------------------------------

Climbing image                            ....  1 
Energy                                    ....  -544.97426367 Eh
Max. abs. force                           ....  5.8346e-04 Eh/Bohr

-----------------------------------------
  SADDLE POINT (ANGSTROEM)
-----------------------------------------
C     -0.531130    -1.235318    -1.351516 
C      0.790848    -1.577632    -0.945702 
C      1.223539    -0.738701     0.010388 
C      0.669722     0.356472     0.664357 
C     -0.618413     0.623388     0.211177 
C     -1.226055    -0.161064    -0.790720 
H     -1.033142    -1.821224    -2.125386 
H      1.151405     0.952729     1.436388 
N      2.706986    -1.077579     0.504972 
N      3.702291    -1.560005     0.616128 
H     -2.236279     0.092777    -1.107534 
N     -1.346000     1.755321     0.804654 
O     -2.481791     1.982415     0.397754 
O     -0.771982     2.408421     1.675039 

-----------------------------------------
  FORCES (Eh/Bohr)
-----------------------------------------
C      0.000348    -0.000316    -0.000097 
C     -0.000194     0.000305     0.000160 
C      0.000290    -0.000090     0.000080 
C      0.000345    -0.000203     0.000001 
C      0.000212     0.000323     0.000397 
C      0.000319     0.000006     0.000187 
H      0.000022    -0.000081    -0.000057 
H     -0.000277     0.000061    -0.000093 
N     -0.000092    -0.000302    -0.000310 
N     -0.000583     0.000167    -0.000165 
H     -0.000115    -0.000028    -0.000088 
N     -0.000061     0.000122     0.000055 
O     -0.000075    -0.000114    -0.000132 
O     -0.000140     0.000152     0.000063 

-----------------------------------------
  UNIT TANGENT
-----------------------------------------
C     -0.045866     0.005617    -0.019631 
C     -0.064059     0.182148     0.123235 
C     -0.247719     0.097716    -0.047137 
C     -0.051371     0.044371     0.011545 
C     -0.088293     0.019023    -0.029830 
C     -0.066459     0.017338    -0.020079 
H      0.015974    -0.033777    -0.021064 
H     -0.026363     0.026079     0.009139 
N      0.522364     0.081480     0.347684 
N      0.349355    -0.492236    -0.240544 
H     -0.061032    -0.005297    -0.036431 
N     -0.081606     0.015767    -0.028392 
O     -0.081423     0.029335    -0.018938 
O     -0.073500     0.012437    -0.029558 
 => Unit tangent is an approximation to the TS mode at the saddle point

Next a TS optimization is performed on the CI from the NEB run.

         *************************************************************
         *                       TS OPTIMIZATION                     *
         *************************************************************

Geometry optimization settings:
Update method            Update   .... Bofill
Choice of coordinates    CoordSys .... Z-matrix Internals
Initial Hessian          InHess   .... Read

Convergence Tolerances:
Energy Change            TolE     ....  1.0000e-06 Eh
Max. Gradient            TolMAXG  ....  1.0000e-04 Eh/bohr
RMS Gradient             TolRMSG  ....  3.0000e-05 Eh/bohr
Max. Displacement        TolMAXD  ....  1.0000e-03 bohr
RMS Displacement         TolRMSD  ....  6.0000e-04 bohr

------------------------------------------------------------------------------
                        ORCA OPTIMIZATION COORDINATE SETUP
------------------------------------------------------------------------------

The optimization will be done in new redundant internal coordinates
Making redundant internal coordinates   ...  (new redundants) done
Following TS mode number                ...     0
TS-active-atoms for coordinate setup... 8 9 
Evaluating the initial hessian          ... (Reading Exact Hessian)...  
InHessName: 3-NO2-C6H3-N2-v1-NEB-TS.appr.hess	The file <3-NO2-C6H3-N2-v1-NEB-TS.appr.hess> is opened as a .hess file
done
done
Diagonalizing the Hessian               .... done
Dimension of the hessian                .... 63
Lowest eigenvalues of the non projected Hessian:
 -0.015729015 -0.000000000 -0.000000000 -0.000000000 -0.000000000
done
Evaluating the coordinates              ...  done
Calculating the B-matrix                .... done
Calculating the G-matrix                .... done
Diagonalizing the G-matrix              .... done
The first mode is                       ....   27
The number of degrees of freedom        ....   36

    -----------------------------------------------------------------
                    Redundant Internal Coordinates


    -----------------------------------------------------------------
         Definition                    Initial Value    d2E/dq (diagonal element)
    -----------------------------------------------------------------
      1. B(C   1,C   0)                  1.4246         0.510165   
      2. B(C   2,C   1)                  1.3436         0.397620   
      3. B(C   3,C   2)                  1.3906         0.379499   
      4. B(C   4,C   3)                  1.3914         0.737199   
      5. B(C   5,C   0)                  1.3969         0.580216   
      6. B(C   5,C   4)                  1.4101         0.534367   
      7. B(H   6,C   0)                  1.0928         0.356104   
      8. B(H   7,C   3)                  1.0879         0.362655   
      9. B(N   8,C   1)                  2.4548         0.112042   
     10. B(N   8,C   2)                  1.6000         0.122757   
     11. B(N   8,C   3)                  2.4965         0.275302   
     12. B(N   9,N   8)                  1.1116         0.665658   
     13. B(N   9,C   2)                  2.6806         0.289888   
     14. B(H  10,C   5)                  1.0887         0.363505   
     15. B(N  11,C   4)                  1.4707         0.423519   
     16. B(O  12,N  11)                  1.2277         0.914296   
     17. B(O  13,N  11)                  1.2303         0.904394   
     18. A(C   1,C   0,C   5)          122.1443         0.162794   
     19. A(C   1,C   0,H   6)          119.9466         0.214780   
     20. A(C   5,C   0,H   6)          117.9091         0.216520   
     21. A(C   0,C   1,C   2)          110.5805         0.223740   
     22. A(C   3,C   2,N   8)          112.9963         0.222835   
     23. A(C   1,C   2,N   8)          112.7248         0.121494   
     24. A(C   1,C   2,C   3)          134.2789         0.177692   
     25. A(C   2,C   3,C   4)          111.5070         0.148136   
     26. A(C   4,C   3,H   7)          122.4049         0.215596   
     27. A(C   2,C   3,H   7)          126.0881         0.211506   
     28. A(C   3,C   4,C   5)          121.5772         0.163108   
     29. A(C   5,C   4,N  11)          120.1130         0.324912   
     30. A(C   3,C   4,N  11)          118.3098         0.300663   
     31. A(C   4,C   5,H  10)          118.4826         0.214204   
     32. A(C   0,C   5,H  10)          121.6053         0.214842   
     33. A(C   0,C   5,C   4)          119.9121         0.156385   
     34. A(C   2,N   8,N   9)          162.3538         0.411646   
     35. A(O  12,N  11,O  13)          124.6069         0.311948   
     36. A(C   4,N  11,O  13)          117.5967         0.293522   
     37. A(C   4,N  11,O  12)          117.7964         0.290147   
     38. D(C   2,C   1,C   0,C   5)      0.0031         0.008351   
     39. D(C   2,C   1,C   0,H   6)    179.9997         0.010064   
     40. D(N   8,C   2,C   1,C   0)    179.9991         0.024470   
     41. D(C   3,C   2,C   1,C   0)      0.0010         0.006924   
     42. D(C   4,C   3,C   2,N   8)    179.9988         0.018518   
     43. D(H   7,C   3,C   2,C   1)    179.9997         0.008617   
     44. D(H   7,C   3,C   2,N   8)      0.0016         0.021216   
     45. D(C   4,C   3,C   2,C   1)     -0.0031         0.008251   
     46. D(N  11,C   4,C   3,H   7)     -0.0024         0.010472   
     47. D(N  11,C   4,C   3,C   2)   -179.9997         0.008703   
     48. D(C   5,C   4,C   3,H   7)    179.9986         0.009303   
     49. D(C   5,C   4,C   3,C   2)      0.0013         0.008647   
     50. D(H  10,C   5,C   0,C   1)   -179.9998         0.009992   
     51. D(C   4,C   5,C   0,H   6)    179.9987         0.010147   
     52. D(C   4,C   5,C   0,C   1)     -0.0046         0.009343   
     53. D(H  10,C   5,C   4,N  11)     -0.0015         0.009802   
     54. D(H  10,C   5,C   4,C   3)    179.9975         0.009077   
     55. D(C   0,C   5,C   4,N  11)   -179.9968         0.008350   
     56. D(C   0,C   5,C   4,C   3)      0.0022         0.008570   
     57. D(H  10,C   5,C   0,H   6)      0.0035         0.012388   
     58. D(N   9,N   8,C   2,C   3)    179.9838         0.093275   
     59. D(N   9,N   8,C   2,C   1)     -0.0147         0.150535   
     60. D(O  13,N  11,C   4,C   5)    179.9976         0.008791   
     61. D(O  13,N  11,C   4,C   3)     -0.0014         0.009163   
     62. D(O  12,N  11,C   4,C   5)     -0.0073         0.008354   
     63. D(O  12,N  11,C   4,C   3)    179.9937         0.008405   
    -----------------------------------------------------------------

Number of atoms                         .... 14
Number of degrees of freedom            .... 63

         *************************************************************
         *                GEOMETRY OPTIMIZATION CYCLE   1            *
         *************************************************************


           ************************************************************
           *        Program running with 42 parallel MPI-processes    *
           *            working without local directories             *
           ************************************************************
------------------------------------------------------------------------------
                           ORCA GTO INTEGRAL CALCULATION
------------------------------------------------------------------------------

                         BASIS SET STATISTICS AND STARTUP INFO

 # of primitive gaussian shells          ...  296
 # of primitive gaussian functions       ...  506
 # of contracted shells                  ...  114
 # of contracted basis functions         ...  280
 Highest angular momentum                ...    2
 Maximum contraction depth               ...    8
 Integral package used                   ... LIBINT
 Integral threshhold            Thresh   ...  2.500e-11
 Primitive cut-off              TCut     ...  2.500e-12


------------------------------ INTEGRAL EVALUATION ----------------------------


 * One electron integrals 
 Pre-screening matrix                    ... done
 Shell pair data                         ... done (   0.004 sec)



           ************************************************************
           *        Program running with 42 parallel MPI-processes    *
           *            working without local directories             *
           ************************************************************
-------------------------------------------------------------------------------
                                 ORCA SCF
-------------------------------------------------------------------------------

------------
SCF SETTINGS
------------
Hamiltonian:
 Density Functional     Method          .... DFT(GTOs)
 Exchange Functional    Exchange        .... B88
   X-Alpha parameter    XAlpha          ....  0.666667
   Becke's b parameter  XBeta           ....  0.004200
 Correlation Functional Correlation     .... LYP
 LDA part of GGA corr.  LDAOpt          .... VWN-3
 Gradients option       PostSCFGGA      .... off
 Hybrid DFT is turned on
   Fraction HF Exchange ScalHFX         ....  0.200000
   Scaling of DF-GGA-X  ScalDFX         ....  0.720000
   Scaling of DF-GGA-C  ScalDFC         ....  0.810000
   Scaling of DF-LDA-C  ScalLDAC        ....  1.000000
   Perturbative correction              ....  0.000000
   Density functional embedding theory  .... OFF
   NL short-range parameter             ....  4.800000


General Settings:
 Integral files         IntName         .... 3-NO2-C6H3-N2-v1-NEB-TS
 Hartree-Fock type      HFTyp           .... RHF
 Total Charge           Charge          ....    0
 Multiplicity           Mult            ....    1
 Number of Electrons    NEL             ....   76
 Basis Dimension        Dim             ....  280
 Nuclear Repulsion      ENuc            ....    530.5834453199 Eh

Convergence Acceleration:
 DIIS                   CNVDIIS         .... on
   Start iteration      DIISMaxIt       ....    12
   Startup error        DIISStart       ....  0.200000
   # of expansion vecs  DIISMaxEq       ....     5
   Bias factor          DIISBfac        ....   1.050
   Max. coefficient     DIISMaxC        ....  10.000
 Newton-Raphson         CNVNR           .... off
 SOSCF                  CNVSOSCF        .... on
   Start iteration      SOSCFMaxIt      ....   150
   Startup grad/error   SOSCFStart      ....  0.003300
 Level Shifting         CNVShift        .... on
   Level shift para.    LevelShift      ....    0.2500
   Turn off err/grad.   ShiftErr        ....    0.0010
 Zerner damping         CNVZerner       .... off
 Static damping         CNVDamp         .... on
   Fraction old density DampFac         ....    0.7000
   Max. Damping (<1)    DampMax         ....    0.9800
   Min. Damping (>=0)   DampMin         ....    0.0000
   Turn off err/grad.   DampErr         ....    0.1000
 Fernandez-Rico         CNVRico         .... off

SCF Procedure:
 Maximum # iterations   MaxIter         ....  1000
 SCF integral mode      SCFMode         .... Direct
   Integral package                     .... LIBINT
 Reset frequency        DirectResetFreq ....    20
 Integral Threshold     Thresh          ....  2.500e-11 Eh
 Primitive CutOff       TCut            ....  2.500e-12 Eh

Convergence Tolerance:
 Convergence Check Mode ConvCheckMode   .... Total+1el-Energy
 Convergence forced     ConvForced      .... 0
 Energy Change          TolE            ....  1.000e-08 Eh
 1-El. energy change                    ....  1.000e-05 Eh
 Orbital Gradient       TolG            ....  1.000e-05
 Orbital Rotation angle TolX            ....  1.000e-05
 DIIS Error             TolErr          ....  5.000e-07


Diagonalization of the overlap matrix:
Smallest eigenvalue                        ... 4.556e-06
Time for diagonalization                   ...    0.020 sec
Threshold for overlap eigenvalues          ... 1.000e-08
Number of eigenvalues below threshold      ... 0
Time for construction of square roots      ...    0.020 sec
Total time needed                          ...    0.040 sec

---------------------
INITIAL GUESS: MOREAD
---------------------
Guess MOs are being read from file: 3-NO2-C6H3-N2-v1-NEB-TS.gbw
Input Geometry matches current geometry (good)
Input basis set matches current basis set (good)
MOs were renormalized
MOs were reorthogonalized (Cholesky)
                      ------------------
                      INITIAL GUESS DONE (   0.1 sec)
                      ------------------
-------------------
DFT GRID GENERATION
-------------------

General Integration Accuracy     IntAcc      ...  5.670
Radial Grid Type                 RadialGrid  ... Gauss-Chebyshev
Angular Grid (max. acc.)         AngularGrid ... Lebedev-770
Angular grid pruning method      GridPruning ... 3 (G Style)
Weight generation scheme         WeightScheme... Becke
Basis function cutoff            BFCut       ...    1.0000e-11
Integration weight cutoff        WCut        ...    1.0000e-14
Grids for H and He will be reduced by one unit

[...]

Components:
Nuclear Repulsion  :          530.54135055 Eh           14436.76410 eV
Electronic Energy  :        -1075.51562093 Eh          -29266.26791 eV
One Electron Energy:        -1790.42147035 Eh          -48719.84508 eV
Two Electron Energy:          714.90584942 Eh           19453.57716 eV

Virial components:
Potential Energy   :        -1086.66954649 Eh          -29569.78166 eV
Kinetic Energy     :          541.69527611 Eh           14740.27784 eV
Virial Ratio       :            2.00605321


DFT components:
N(Alpha)           :       37.999999990438 electrons
N(Beta)            :       37.999999990438 electrons
N(Total)           :       75.999999980876 electrons
E(X)               :      -54.268886334168 Eh       
E(C)               :       -3.402182799789 Eh       
E(XC)              :      -57.671069133957 Eh       
DFET-embed. en.    :        0.000000000000 Eh       

---------------
SCF CONVERGENCE
---------------

  Last Energy change         ...   -7.5556e-10  Tolerance :   1.0000e-08
  Last MAX-Density change    ...    7.9288e-03  Tolerance :   1.0000e-07
  Last RMS-Density change    ...    9.4493e-05  Tolerance :   5.0000e-09
  Last Orbital Gradient      ...    1.5152e-06  Tolerance :   1.0000e-05
  Last Orbital Rotation      ...    4.7647e-06  Tolerance :   1.0000e-05

             **** THE GBW FILE WAS UPDATED (3-NO2-C6H3-N2-v1-NEB-TS.gbw) ****
             **** DENSITY FILE WAS UPDATED (3-NO2-C6H3-N2-v1-NEB-TS.scfp.tmp) ****
             **** ENERGY FILE WAS UPDATED (3-NO2-C6H3-N2-v1-NEB-TS.en.tmp) ****
----------------
ORBITAL ENERGIES
----------------

  NO   OCC          E(Eh)            E(eV) 
   0   2.0000     -19.197272      -522.3843 
   1   2.0000     -19.196216      -522.3556 
   2   2.0000     -14.585730      -396.8979 
   3   2.0000     -14.541390      -395.6913 
   4   2.0000     -14.517250      -395.0345 
   5   2.0000     -10.292938      -280.0851 
   6   2.0000     -10.272832      -279.5380 
   7   2.0000     -10.255223      -279.0588 
   8   2.0000     -10.233546      -278.4689 
   9   2.0000     -10.225103      -278.2392 
  10   2.0000     -10.190494      -277.2974 
  11   2.0000      -1.247044       -33.9338 
  12   2.0000      -1.205069       -32.7916 
  13   2.0000      -1.074206       -29.2306 
  14   2.0000      -0.921556       -25.0768 
  15   2.0000      -0.843062       -22.9409 
  16   2.0000      -0.801880       -21.8203 
  17   2.0000      -0.734341       -19.9824 
  18   2.0000      -0.701339       -19.0844 
  19   2.0000      -0.632529       -17.2120 
  20   2.0000      -0.592676       -16.1275 
  21   2.0000      -0.563770       -15.3409 
  22   2.0000      -0.552310       -15.0291 
  23   2.0000      -0.551476       -15.0064 
  24   2.0000      -0.548280       -14.9195 
  25   2.0000      -0.529832       -14.4175 
  26   2.0000      -0.517818       -14.0906 
  27   2.0000      -0.503303       -13.6956 
  28   2.0000      -0.476710       -12.9719 
  29   2.0000      -0.458479       -12.4758 
  30   2.0000      -0.413397       -11.2491 
  31   2.0000      -0.394223       -10.7274 
  32   2.0000      -0.332460        -9.0467 
  33   2.0000      -0.330169        -8.9844 
  34   2.0000      -0.312768        -8.5109 
  35   2.0000      -0.306986        -8.3535 
  36   2.0000      -0.290326        -7.9002 
  37   2.0000      -0.233415        -6.3516 
  38   0.0000      -0.122706        -3.3390 
  39   0.0000      -0.118492        -3.2243 
  40   0.0000      -0.110190        -2.9984 
  41   0.0000      -0.040931        -1.1138 
  42   0.0000      -0.021077        -0.5735 
  43   0.0000      -0.005230        -0.1423 
  44   0.0000       0.001756         0.0478 
  45   0.0000       0.009672         0.2632 
  46   0.0000       0.022163         0.6031 
  47   0.0000       0.032040         0.8719 
  48   0.0000       0.034234         0.9316 
  49   0.0000       0.041090         1.1181 
  50   0.0000       0.052964         1.4412 
  51   0.0000       0.063725         1.7341 
  52   0.0000       0.064504         1.7553 
  53   0.0000       0.075955         2.0668 
  54   0.0000       0.078876         2.1463 
  55   0.0000       0.086399         2.3510 
  56   0.0000       0.089053         2.4232 
  57   0.0000       0.096633         2.6295 
  58   0.0000       0.105047         2.8585 
  59   0.0000       0.107968         2.9380 
  60   0.0000       0.108621         2.9557 
  61   0.0000       0.114953         3.1280 
  62   0.0000       0.116105         3.1594 
  63   0.0000       0.117573         3.1993 
  64   0.0000       0.124157         3.3785 
  65   0.0000       0.132948         3.6177 
  66   0.0000       0.137659         3.7459 
  67   0.0000       0.146084         3.9751 
  68   0.0000       0.155951         4.2436 
  69   0.0000       0.168417         4.5829 
  70   0.0000       0.168828         4.5940 
  71   0.0000       0.173006         4.7077 
  72   0.0000       0.178432         4.8554 
  73   0.0000       0.186322         5.0701 
  74   0.0000       0.194487         5.2923 
  75   0.0000       0.196138         5.3372 
  76   0.0000       0.202773         5.5177 
  77   0.0000       0.208291         5.6679 
  78   0.0000       0.221067         6.0155 
  79   0.0000       0.223876         6.0920 
  80   0.0000       0.231070         6.2877 
  81   0.0000       0.233203         6.3458 
  82   0.0000       0.238242         6.4829 
  83   0.0000       0.239349         6.5130 
  84   0.0000       0.252037         6.8583 
  85   0.0000       0.258875         7.0443 
  86   0.0000       0.261050         7.1035 
  87   0.0000       0.264848         7.2069 
  88   0.0000       0.268402         7.3036 
  89   0.0000       0.272448         7.4137 
  90   0.0000       0.280733         7.6391 
  91   0.0000       0.291004         7.9186 
  92   0.0000       0.291689         7.9373 
  93   0.0000       0.300386         8.1739 
  94   0.0000       0.307680         8.3724 
  95   0.0000       0.312469         8.5027 
  96   0.0000       0.320659         8.7256 
  97   0.0000       0.324325         8.8253 
  98   0.0000       0.333605         9.0778 
  99   0.0000       0.337102         9.1730 
 100   0.0000       0.351643         9.5687 
 101   0.0000       0.374159        10.1814 
 102   0.0000       0.381985        10.3943 
 103   0.0000       0.388268        10.5653 
 104   0.0000       0.409112        11.1325 
 105   0.0000       0.413028        11.2391 
 106   0.0000       0.417611        11.3638 
 107   0.0000       0.430549        11.7158 
 108   0.0000       0.435266        11.8442 
 109   0.0000       0.436755        11.8847 
 110   0.0000       0.450079        12.2473 
 111   0.0000       0.463419        12.6103 
 112   0.0000       0.471540        12.8312 
 113   0.0000       0.472845        12.8668 
 114   0.0000       0.488589        13.2952 
 115   0.0000       0.503921        13.7124 
 116   0.0000       0.508713        13.8428 
 117   0.0000       0.524323        14.2676 
 118   0.0000       0.534558        14.5461 
 119   0.0000       0.535269        14.5654 
 120   0.0000       0.547766        14.9055 
 121   0.0000       0.549565        14.9544 
 122   0.0000       0.554292        15.0830 
 123   0.0000       0.562620        15.3097 
 124   0.0000       0.579508        15.7692 
 125   0.0000       0.585064        15.9204 
 126   0.0000       0.597008        16.2454 
 127   0.0000       0.598380        16.2827 
 128   0.0000       0.616052        16.7636 
 129   0.0000       0.622694        16.9444 
 130   0.0000       0.632147        17.2016 
 131   0.0000       0.641762        17.4632 
 132   0.0000       0.650810        17.7094 
 133   0.0000       0.667859        18.1734 
 134   0.0000       0.686477        18.6800 
 135   0.0000       0.688297        18.7295 
 136   0.0000       0.692595        18.8465 
 137   0.0000       0.697184        18.9713 
 138   0.0000       0.704703        19.1759 
 139   0.0000       0.705022        19.1846 
 140   0.0000       0.718015        19.5382 
 141   0.0000       0.725771        19.7492 
 142   0.0000       0.733440        19.9579 
 143   0.0000       0.737979        20.0814 
 144   0.0000       0.738841        20.1049 
 145   0.0000       0.753269        20.4975 
 146   0.0000       0.758817        20.6485 
 147   0.0000       0.763351        20.7718 
 148   0.0000       0.775207        21.0945 
 149   0.0000       0.795032        21.6339 
 150   0.0000       0.799472        21.7547 
 151   0.0000       0.823252        22.4018 
 152   0.0000       0.834524        22.7085 
 153   0.0000       0.836420        22.7601 
 154   0.0000       0.858906        23.3720 
 155   0.0000       0.864844        23.5336 
 156   0.0000       0.866500        23.5787 
 157   0.0000       0.878170        23.8962 
 158   0.0000       0.885638        24.0994 
 159   0.0000       0.908064        24.7097 
 160   0.0000       0.948780        25.8176 
 161   0.0000       0.949330        25.8326 
 162   0.0000       0.967066        26.3152 
 163   0.0000       0.986846        26.8534 
 164   0.0000       1.011982        27.5374 
 165   0.0000       1.044197        28.4140 
 166   0.0000       1.047311        28.4988 
 167   0.0000       1.052802        28.6482 
 168   0.0000       1.060111        28.8471 
 169   0.0000       1.063781        28.9469 
 170   0.0000       1.076193        29.2847 
 171   0.0000       1.081093        29.4180 
 172   0.0000       1.116788        30.3893 
 173   0.0000       1.120685        30.4954 
 174   0.0000       1.144698        31.1488 
 175   0.0000       1.167248        31.7624 
 176   0.0000       1.184865        32.2418 
 177   0.0000       1.186060        32.2743 
 178   0.0000       1.202873        32.7318 
 179   0.0000       1.231624        33.5142 
 180   0.0000       1.233698        33.5706 
 181   0.0000       1.236125        33.6367 
 182   0.0000       1.282118        34.8882 
 183   0.0000       1.284608        34.9560 
 184   0.0000       1.306001        35.5381 
 185   0.0000       1.315213        35.7888 
 186   0.0000       1.323458        36.0131 
 187   0.0000       1.328637        36.1540 
 188   0.0000       1.338078        36.4110 
 189   0.0000       1.359765        37.0011 
 190   0.0000       1.370792        37.3011 
 191   0.0000       1.384009        37.6608 
 192   0.0000       1.391037        37.8520 
 193   0.0000       1.418087        38.5881 
 194   0.0000       1.422378        38.7049 
 195   0.0000       1.425208        38.7819 
 196   0.0000       1.442828        39.2614 
 197   0.0000       1.443677        39.2845 
 198   0.0000       1.462986        39.8099 
 199   0.0000       1.488538        40.5052 
 200   0.0000       1.500374        40.8273 
 201   0.0000       1.507857        41.0309 
 202   0.0000       1.528073        41.5810 
 203   0.0000       1.542928        41.9852 
 204   0.0000       1.568978        42.6941 
 205   0.0000       1.591612        43.3100 
 206   0.0000       1.603775        43.6409 
 207   0.0000       1.623380        44.1744 
 208   0.0000       1.636472        44.5307 
 209   0.0000       1.671219        45.4762 
 210   0.0000       1.692730        46.0615 
 211   0.0000       1.701349        46.2961 
 212   0.0000       1.708943        46.5027 
 213   0.0000       1.737363        47.2760 
 214   0.0000       1.741376        47.3852 
 215   0.0000       1.756330        47.7922 
 216   0.0000       1.776455        48.3398 
 217   0.0000       1.800796        49.0021 
 218   0.0000       1.829090        49.7721 
 219   0.0000       1.852129        50.3990 
 220   0.0000       1.877011        51.0761 
 221   0.0000       1.878436        51.1148 
 222   0.0000       1.923139        52.3313 
 223   0.0000       1.923179        52.3324 
 224   0.0000       1.929954        52.5167 
 225   0.0000       1.977728        53.8167 
 226   0.0000       1.981172        53.9104 
 227   0.0000       1.996133        54.3175 
 228   0.0000       2.018411        54.9238 
 229   0.0000       2.028501        55.1983 
 230   0.0000       2.043214        55.5987 
 231   0.0000       2.048694        55.7478 
 232   0.0000       2.076874        56.5146 
 233   0.0000       2.095708        57.0271 
 234   0.0000       2.125347        57.8336 
 235   0.0000       2.165428        58.9243 
 236   0.0000       2.180100        59.3235 
 237   0.0000       2.186351        59.4936 
 238   0.0000       2.209176        60.1147 
 239   0.0000       2.243410        61.0463 
 240   0.0000       2.257809        61.4381 
 241   0.0000       2.292111        62.3715 
 242   0.0000       2.296097        62.4800 
 243   0.0000       2.327074        63.3229 
 244   0.0000       2.342361        63.7389 
 245   0.0000       2.344301        63.7917 
 246   0.0000       2.353125        64.0318 
 247   0.0000       2.419853        65.8475 
 248   0.0000       2.453070        66.7514 
 249   0.0000       2.480988        67.5111 
 250   0.0000       2.494432        67.8769 
 251   0.0000       2.590185        70.4825 
 252   0.0000       2.598010        70.6955 
 253   0.0000       2.636051        71.7306 
 254   0.0000       2.729126        74.2633 
 255   0.0000       2.755985        74.9942 
 256   0.0000       2.804400        76.3116 
 257   0.0000       2.817803        76.6763 
 258   0.0000       2.823399        76.8286 
 259   0.0000       2.885017        78.5053 
 260   0.0000       2.955317        80.4183 
 261   0.0000       3.009696        81.8980 
 262   0.0000       3.075465        83.6877 
 263   0.0000       3.111400        84.6655 
 264   0.0000       3.176401        86.4343 
 265   0.0000       3.277319        89.1804 
 266   0.0000       3.279463        89.2387 
 267   0.0000       3.284557        89.3773 
 268   0.0000       3.314749        90.1989 
 269   0.0000       3.352533        91.2271 
 270   0.0000       3.382414        92.0402 
 271   0.0000       3.393549        92.3431 
 272   0.0000       3.450534        93.8938 
 273   0.0000       3.523510        95.8796 
 274   0.0000       3.593683        97.7891 
 275   0.0000       3.596322        97.8609 
 276   0.0000       3.746501       101.9475 
 277   0.0000       3.784239       102.9744 
 278   0.0000       3.813305       103.7653 
 279   0.0000       4.137310       112.5819 
-------
TIMINGS
-------

Total SCF time: 0 days 0 hours 0 min 29 sec 

Total time                  ....      29.452 sec
Sum of individual times     ....      28.792 sec  ( 97.8%)

Fock matrix formation       ....      19.051 sec  ( 64.7%)
  XC integration            ....       2.617 sec  ( 13.7% of F)
    Basis function eval.    ....       0.640 sec  ( 24.5% of XC)
    Density eval.           ....       0.674 sec  ( 25.8% of XC)
    XC-Functional eval.     ....       0.079 sec  (  3.0% of XC)
    XC-Potential eval.      ....       0.487 sec  ( 18.6% of XC)
Diagonalization             ....       0.031 sec  (  0.1%)
Density matrix formation    ....       0.092 sec  (  0.3%)
Population analysis         ....       0.000 sec  (  0.0%)
Initial guess               ....       0.053 sec  (  0.2%)
Orbital Transformation      ....       0.000 sec  (  0.0%)
Orbital Orthonormalization  ....       0.024 sec  (  0.1%)
DIIS solution               ....       0.009 sec  (  0.0%)
SOSCF solution              ....       0.272 sec  (  0.9%)
Grid generation             ....       9.283 sec  ( 31.5%)

-------------------------   --------------------
FINAL SINGLE POINT ENERGY      -544.974270383355
-------------------------   --------------------

                                *** OPTIMIZATION RUN DONE ***


                    ***********************HURRAY************************
                    ***        THE TS OPTIMIZATION HAS CONVERGED      ***
                    *****************************************************



---------------------------------------------------------------
                      PATH SUMMARY FOR NEB-TS             
---------------------------------------------------------------
All forces in Eh/Bohr. Global forces for TS.

Image     E(Eh)   dE(kcal/mol)  max(|Fp|)  RMS(Fp)
  0    -544.97749     0.00       0.00112   0.00046
  1    -544.97426     2.02       0.00042   0.00035 <= CI
 TS    -544.97427     2.02       0.00034   0.00012 <= TS
  2    -544.98196    -2.80       0.00331   0.00175
  3    -544.99378   -10.22       0.00499   0.00292
  4    -545.00164   -15.16       0.00248   0.00177
  5    -545.00710   -18.58       0.00177   0.00123
  6    -545.01041   -20.66       0.00144   0.00109
  7    -545.01222   -21.79       0.00182   0.00091
  8    -545.01288   -22.20       0.00169   0.00092
  9    -545.01333   -22.49       0.00160   0.00084
 10    -545.01377   -22.77       0.00097   0.00054
 11    -545.01418   -23.02       0.00047   0.00028
 12    -545.01443   -23.18       0.00014   0.00012
 13    -545.01450   -23.22       0.00084   0.00043
----------
STATISTICS
----------

For the individual parts of the NEB, NEB-CI or NEB-TS run:

Number of iterations:
     NEB                               ... 51  85.0%
     TS optimization                   ... 9  15.0%
Number of SCF / gradient calculations:
     NEB                               ... 614  98.6%
     TS optimization                   ... 9  1.4%

----------
 TIMINGS
----------

For the individual parts of the NEB, NEB-CI or NEB-TS run:

Total                                  ...    38409.922 sec
NEB                                    ...    37837.401 sec  98.5%
TS Optimization                        ...      572.520 sec  1.5%


                            ***************************************
                            *     ORCA property calculations      *
                            ***************************************

                                    ---------------------
                                    Active property flags
                                    ---------------------
   (+) Dipole Moment


------------------------------------------------------------------------------
                       ORCA ELECTRIC PROPERTIES CALCULATION
------------------------------------------------------------------------------

Dipole Moment Calculation                       ... on
Quadrupole Moment Calculation                   ... off
Polarizability Calculation                      ... off
GBWName                                         ... 3-NO2-C6H3-N2-v1-NEB-TS.gbw
Electron density file                           ... 3-NO2-C6H3-N2-v1-NEB-TS.scfp.tmp
The origin for moment calculation is the CENTER OF MASS  = ( 0.258234,  0.307285  0.403188)

-------------
DIPOLE MOMENT
-------------
                                X             Y             Z
Electronic contribution:      3.65663       0.53583       2.40620
Nuclear contribution   :     -2.39582      -1.13096      -2.25167
                        -----------------------------------------
Total Dipole Moment    :      1.26081      -0.59513       0.15453
                        -----------------------------------------
Magnitude (a.u.)       :      1.40275
Magnitude (Debye)      :      3.56551



--------------------
Rotational spectrum 
--------------------
 
Rotational constants in cm-1:     0.079766     0.024008     0.018454 
Rotational constants in MHz :  2391.325550   719.734967   553.226338 

 Dipole components along the rotational axes: 
x,y,z [a.u.] :     1.341581     0.409722     0.000003 
x,y,z [Debye]:     3.410028     1.041430     0.000008 

 

Timings for individual modules:

Sum of individual times         ...      764.808 sec (=  12.747 min)
GTO integral calculation        ...       29.816 sec (=   0.497 min)   3.9 %
SCF iterations                  ...      575.631 sec (=   9.594 min)  75.3 %
SCF Gradient evaluation         ...      158.261 sec (=   2.638 min)  20.7 %
Geometry relaxation             ...        1.100 sec (=   0.018 min)   0.1 %
                             ****ORCA TERMINATED NORMALLY****
TOTAL RUN TIME: 0 days 10 hours 41 minutes 10 seconds 507 msec
