
                                 *****************
                                 * O   R   C   A *
                                 *****************

           --- An Ab Initio, DFT and Semiempirical electronic structure package ---

                  #######################################################
                  #                        -***-                        #
                  #          Department of theory and spectroscopy      #
                  #               Directorship: Frank Neese             #
                  #        Max Planck Institute fuer Kohlenforschung    #
                  #                Kaiser Wilhelm Platz 1               #
                  #                 D-45470 Muelheim/Ruhr               #
                  #                      Germany                        #
                  #                                                     #
                  #                  All rights reserved                #
                  #                        -***-                        #
                  #######################################################


                         Program Version 4.1.0  - RELEASE  -


 With contributions from (in alphabetic order):
   Daniel Aravena         : Magnetic Properties
   Michael Atanasov       : Ab Initio Ligand Field Theory
   Alexander A. Auer      : GIAO ZORA
   Ute Becker             : Parallelization
   Giovanni Bistoni       : ED, Open-shell LED
   Martin Brehm           : Molecular dynamics
   Dmytro Bykov           : SCF Hessian
   Vijay G. Chilkuri      : MRCI spin determinant printing
   Dipayan Datta          : RHF DLPNO-CCSD density
   Achintya Kumar Dutta   : EOM-CC, STEOM-CC
   Dmitry Ganyushin       : Spin-Orbit,Spin-Spin,Magnetic field MRCI
   Miquel Garcia          : C-PCM Hessian
   Yang Guo               : DLPNO-NEVPT2, CIM, IAO-localization
   Andreas Hansen         : Spin unrestricted coupled pair/coupled cluster methods
   Benjamin Helmich-Paris : CASSCF linear response (MC-RPA)
   Lee Huntington         : MR-EOM, pCC
   Robert Izsak           : Overlap fitted RIJCOSX, COSX-SCS-MP3, EOM
   Christian Kollmar      : KDIIS, OOCD, Brueckner-CCSD(T), CCSD density
   Simone Kossmann        : Meta GGA functionals, TD-DFT gradient, OOMP2, MP2 Hessian
   Martin Krupicka        : AUTO-CI
   Lucas Lang             : DCDCAS
   Dagmar Lenk            : GEPOL surface, SMD
   Dimitrios Liakos       : Extrapolation schemes; parallel MDCI
   Dimitrios Manganas     : ROCIS; embedding schemes
   Dimitrios Pantazis     : SARC Basis sets
   Taras Petrenko         : DFT Hessian,TD-DFT gradient, ASA, ECA, R-Raman, ABS, FL, XAS/XES, NRVS
   Peter Pinski           : DLPNO-MP2, DLPNO-MP2 Gradient
   Christoph Reimann      : Effective Core Potentials
   Marius Retegan         : Local ZFS, SOC
   Christoph Riplinger    : Optimizer, TS searches, QM/MM, DLPNO-CCSD(T), (RO)-DLPNO pert. Triples
   Tobias Risthaus        : Range-separated hybrids, TD-DFT gradient, RPA, STAB
   Michael Roemelt        : Restricted open shell CIS
   Masaaki Saitow         : Open-shell DLPNO
   Barbara Sandhoefer     : DKH picture change effects
   Avijit Sen             : IP-ROCIS
   Kantharuban Sivalingam : CASSCF convergence, NEVPT2, FIC-MRCI
   Bernardo de Souza      : ESD, SOC TD-DFT
   Georgi Stoychev        : AutoAux, RI-MP2 NMR
   Willem Van den Heuvel  : Paramagnetic NMR
   Boris Wezisla          : Elementary symmetry handling
   Frank Wennmohs         : Technical directorship


 We gratefully acknowledge several colleagues who have allowed us to
 interface, adapt or use parts of their codes:
   Stefan Grimme, W. Hujo, H. Kruse,             : VdW corrections, initial TS optimization,
                  C. Bannwarth                     DFT functionals, gCP, sTDA/sTD-DF
   Ed Valeev                                     : LibInt (2-el integral package), F12 methods
   Garnet Chan, S. Sharma, J. Yang, R. Olivares  : DMRG
   Ulf Ekstrom                                   : XCFun DFT Library
   Mihaly Kallay                                 : mrcc  (arbitrary order and MRCC methods)
   Andreas Klamt, Michael Diedenhofen            : otool_cosmo (COSMO solvation model)
   Jiri Pittner, Ondrej Demel                    : Mk-CCSD
   Frank Weinhold                                : gennbo (NPA and NBO analysis)
   Christopher J. Cramer and Donald G. Truhlar   : smd solvation model
   Lars Goerigk                                  : TD-DFT with DH, B97 family of functionals
   V. Asgeirsson, H. Jonsson                     : NEB implementation
   FAccTs GmbH                                   : IRC, NEB, NEB-TS, Multilevel


 Your calculation uses the libint2 library for the computation of 2-el integrals
 For citations please refer to: http://libint.valeyev.net

 This ORCA versions uses:
   CBLAS   interface :  Fast vector & matrix operations
   LAPACKE interface :  Fast linear algebra routines
   SCALAPACK package :  Parallel linear algebra routines




***************************************
The coordinates will be read from file: 4-CH3O-C6H3-N2-source.xyz
***************************************


Your calculation utilizes a Nudged-Elastic-Band implementation
 by V.Asgeirsson, C. Riplinger & H. Jonsson
Please cite in your paper:
 V. Asgeirsson et al., in prep. (2019)
   

----- Orbital basis set information -----
Your calculation utilizes the basis: aug-cc-pVDZ 
    H, B-Ne : Obtained from the ccRepo (grant-hill.group.shef.ac.uk/ccrepo) Feb. 2017
              R. A. Kendall, T. H. Dunning, Jr., R. J. Harrison, J. Chem. Phys. 96, 6796 (1992)
         He : Obtained from the ccRepo (grant-hill.group.shef.ac.uk/ccrepo) Feb. 2017
              D. E. Woon, T. H. Dunning, Jr., J. Chem. Phys. 100, 2975 (1994)
  Li-Be, Na : Obtained from the ccRepo (grant-hill.group.shef.ac.uk/ccrepo) Feb. 2017
              B. P. Prascher, D. E. Woon, K. A. Peterson, T. H. Dunning, Jr., A. K. Wilson, Theor. Chem. Acc. 128, 69 (2011)
         Mg : Obtained from the Peterson Research Group Website (tyr0.chem.wsu.edu/~kipeters) Feb. 2017
              B. P. Prascher, D. E. Woon, K. A. Peterson, T. H. Dunning, Jr., A. K. Wilson, Theor. Chem. Acc. 128, 69 (2011)
      Al-Ar : Obtained from the ccRepo (grant-hill.group.shef.ac.uk/ccrepo) Feb. 2017
              D. E. Woon, T. H. Dunning, Jr., J. Chem. Phys. 98, 1358 (1993)
      Sc-Zn : Obtained from the ccRepo (grant-hill.group.shef.ac.uk/ccrepo) Feb. 2017
              N. B. Balabanov, K. A. Peterson, J. Chem. Phys. 123, 064107 (2005)
              N. B. Balabanov, K. A. Peterson, J. Chem. Phys. 125, 074110 (2006)
      Ga-Kr : Obtained from the ccRepo (grant-hill.group.shef.ac.uk/ccrepo) Feb. 2017
              A. K. Wilson, D. E. Woon, K. A. Peterson, T. H. Dunning, Jr., J. Chem. Phys. 110, 7667 (1999)

================================================================================
                                        WARNINGS
                       Please study these warnings very carefully!
================================================================================


WARNING: Geometry Optimization
  ===> : Switching off AutoStart
         For restart on a previous wavefunction, please use MOREAD

INFO   : the flag for use of LIBINT has been found!

================================================================================
                                       INPUT FILE
================================================================================
NAME = 4-CH3O-C6H3-N2-NEB-TS.orc
|  1> ! B3LYP/G aug-cc-pVDZ TightSCF Grid7 NEB-TS
|  2> %scf MaxIter 1000 end
|  3> %geom MaxIter 1000 TolE 1e-8 TolRMSG 5e-7 TolMaxG 1e-6 Convergence tight end
|  4> %neb
|  5>   Nimages 12
|  6>   neb_end_xyzfile "4-CH3O-C6H3-N2-final.xyz"
|  7> end
|  8> * xyzfile 0 1 4-CH3O-C6H3-N2-source.xyz
|  9> %pal nprocs 42 end
| 10> 
| 11>                          ****END OF INPUT****
================================================================================

Running a Single Point calculation on the reactant structure before starting the actual NEB.

---------------------------------
CARTESIAN COORDINATES (ANGSTROEM)
---------------------------------
  C     -1.942510   -0.222537    0.184341
  C     -0.628903   -0.287133   -0.224299
  C      0.062855    0.950840   -0.319577
  C     -0.398037    2.266874   -0.054286
  C     -1.746469    2.232650    0.355697
  C     -2.504361    1.055406    0.476990
  H     -2.523983   -1.135440    0.276476
  H     -0.153798   -1.241023   -0.459817
  H     -2.265784    3.163763    0.602601
  N      1.379303    0.889683   -0.728680
  N      2.450979    0.894951   -1.056502
  O     -3.788551    1.206925    0.884817
  C     -4.624834    0.058974    1.032879
  H     -5.593559    0.442831    1.365865
  H     -4.223892   -0.630002    1.790930
  H     -4.749469   -0.468362    0.075557

----------------------------
CARTESIAN COORDINATES (A.U.)
----------------------------
  NO LB      ZA    FRAG     MASS         X           Y           Z
   0 C     6.0000    0    12.011   -3.670811   -0.420535    0.348354
   1 C     6.0000    0    12.011   -1.188454   -0.542602   -0.423864
   2 C     6.0000    0    12.011    0.118780    1.796827   -0.603912
   3 C     6.0000    0    12.011   -0.752180    4.283772   -0.102586
   4 C     6.0000    0    12.011   -3.300348    4.219097    0.672169
   5 C     6.0000    0    12.011   -4.732556    1.994429    0.901380
   6 H     1.0000    0     1.008   -4.769637   -2.145671    0.522464
   7 H     1.0000    0     1.008   -0.290635   -2.345194   -0.868928
   8 H     1.0000    0     1.008   -4.281711    5.978646    1.138751
   9 N     7.0000    0    14.007    2.606505    1.681257   -1.377006
  10 N     7.0000    0    14.007    4.631679    1.691211   -1.996500
  11 O     8.0000    0    15.999   -7.159325    2.280758    1.672062
  12 C     6.0000    0    12.011   -8.739669    0.111444    1.951858
  13 H     1.0000    0     1.008  -10.570295    0.836829    2.581111
  14 H     1.0000    0     1.008   -7.981998   -1.190532    3.384367
  15 H     1.0000    0     1.008   -8.975196   -0.885075    0.142782

--------------------------------
INTERNAL COORDINATES (ANGSTROEM)
--------------------------------
 C      0   0   0     0.000000000000     0.00000000     0.00000000
 C      1   0   0     1.377215327706     0.00000000     0.00000000
 C      2   1   0     1.421331700424   116.31182849     0.00000000
 C      3   2   1     1.419417722835   129.56805226     0.00000000
 C      4   3   2     1.409796595182   110.02414242     0.00000000
 C      5   4   3     1.405352081939   124.14236849     0.00000000
 H      1   2   3     1.086274088420   119.75671704   180.00047861
 H      2   1   3     1.091375351287   121.34874610   179.99975838
 H      5   4   3     1.094359334707   119.92320579   180.00025462
 N      3   2   1     1.379905878883   116.46088260   179.99633325
 N     10   3   2     1.120707220862   177.17902027   180.02666033
 O      6   5   4     1.355885860636   116.30331930   179.99891066
 C     12   6   5     1.427964546335   119.73772305   179.99931019
 H     13  12   6     1.093917458603   105.55081371   180.00355009
 H     13  12   6     1.100038281902   111.19231475    61.42431032
 H     13  12   6     1.100037080844   111.19210610   298.58322011

---------------------------
INTERNAL COORDINATES (A.U.)
---------------------------
 C      0   0   0     0.000000000000     0.00000000     0.00000000
 C      1   0   0     2.602559796804     0.00000000     0.00000000
 C      2   1   0     2.685927659261   116.31182849     0.00000000
 C      3   2   1     2.682310765792   129.56805226     0.00000000
 C      4   3   2     2.664129469429   110.02414242     0.00000000
 C      5   4   3     2.655730556600   124.14236849     0.00000000
 H      1   2   3     2.052760533490   119.75671704   180.00047861
 H      2   1   3     2.062400523244   121.34874610   179.99975838
 H      5   4   3     2.068039434697   119.92320579   180.00025462
 N      3   2   1     2.607644201678   116.46088260   179.99633325
 N     10   3   2     2.117829723737   177.17902027   180.02666033
 O      6   5   4     2.562252945457   116.30331930   179.99891066
 C     12   6   5     2.698461921523   119.73772305   179.99931019
 H     13  12   6     2.067204409874   105.55081371   180.00355009
 H     13  12   6     2.078771089625   111.19231475    61.42431032
 H     13  12   6     2.078768819954   111.19210610   298.58322011

---------------------
BASIS SET INFORMATION
---------------------
There are 4 groups of distinct atoms

 Group   1 Type C   : 18s5p2d contracted to 4s3p2d pattern {8811/311/11}
 Group   2 Type H   : 5s2p contracted to 3s2p pattern {311/11}
 Group   3 Type N   : 18s5p2d contracted to 4s3p2d pattern {8811/311/11}
 Group   4 Type O   : 18s5p2d contracted to 4s3p2d pattern {8811/311/11}

Atom   0C    basis set group =>   1
Atom   1C    basis set group =>   1
Atom   2C    basis set group =>   1
Atom   3C    basis set group =>   1
Atom   4C    basis set group =>   1
Atom   5C    basis set group =>   1
Atom   6H    basis set group =>   2
Atom   7H    basis set group =>   2
Atom   8H    basis set group =>   2
Atom   9N    basis set group =>   3
Atom  10N    basis set group =>   3
Atom  11O    basis set group =>   4
Atom  12C    basis set group =>   1
Atom  13H    basis set group =>   2
Atom  14H    basis set group =>   2
Atom  15H    basis set group =>   2


           ************************************************************
           *        Program running with 42 parallel MPI-processes    *
           *            working without local directories             *
           ************************************************************
------------------------------------------------------------------------------
                           ORCA GTO INTEGRAL CALCULATION
------------------------------------------------------------------------------

                         BASIS SET STATISTICS AND STARTUP INFO

 # of primitive gaussian shells          ...  292
 # of primitive gaussian functions       ...  496
 # of contracted shells                  ...  120
 # of contracted basis functions         ...  284
 Highest angular momentum                ...    2
 Maximum contraction depth               ...    8
 Integral package used                   ... LIBINT
 Integral threshhold            Thresh   ...  2.500e-11
 Primitive cut-off              TCut     ...  2.500e-12


------------------------------ INTEGRAL EVALUATION ----------------------------


 * One electron integrals 
 Pre-screening matrix                    ... done
 Shell pair data                         ... done (   0.003 sec)



           ************************************************************
           *        Program running with 42 parallel MPI-processes    *
           *            working without local directories             *
           ************************************************************
-------------------------------------------------------------------------------
                                 ORCA SCF
-------------------------------------------------------------------------------

------------
SCF SETTINGS
------------
Hamiltonian:
 Density Functional     Method          .... DFT(GTOs)
 Exchange Functional    Exchange        .... B88
   X-Alpha parameter    XAlpha          ....  0.666667
   Becke's b parameter  XBeta           ....  0.004200
 Correlation Functional Correlation     .... LYP
 LDA part of GGA corr.  LDAOpt          .... VWN-3
 Gradients option       PostSCFGGA      .... off
 Hybrid DFT is turned on
   Fraction HF Exchange ScalHFX         ....  0.200000
   Scaling of DF-GGA-X  ScalDFX         ....  0.720000
   Scaling of DF-GGA-C  ScalDFC         ....  0.810000
   Scaling of DF-LDA-C  ScalLDAC        ....  1.000000
   Perturbative correction              ....  0.000000
   Density functional embedding theory  .... OFF
   NL short-range parameter             ....  4.800000


General Settings:
 Integral files         IntName         .... 4-CH3O-C6H3-N2-NEB-TS
 Hartree-Fock type      HFTyp           .... RHF
 Total Charge           Charge          ....    0
 Multiplicity           Mult            ....    1
 Number of Electrons    NEL             ....   70
 Basis Dimension        Dim             ....  284
 Nuclear Repulsion      ENuc            ....    459.4198160063 Eh

Convergence Acceleration:
 DIIS                   CNVDIIS         .... on
   Start iteration      DIISMaxIt       ....    12
   Startup error        DIISStart       ....  0.200000
   # of expansion vecs  DIISMaxEq       ....     5
   Bias factor          DIISBfac        ....   1.050
   Max. coefficient     DIISMaxC        ....  10.000
 Newton-Raphson         CNVNR           .... off
 SOSCF                  CNVSOSCF        .... on
   Start iteration      SOSCFMaxIt      ....   150
   Startup grad/error   SOSCFStart      ....  0.003300
 Level Shifting         CNVShift        .... on
   Level shift para.    LevelShift      ....    0.2500
   Turn off err/grad.   ShiftErr        ....    0.0010
 Zerner damping         CNVZerner       .... off
 Static damping         CNVDamp         .... on
   Fraction old density DampFac         ....    0.7000
   Max. Damping (<1)    DampMax         ....    0.9800
   Min. Damping (>=0)   DampMin         ....    0.0000
   Turn off err/grad.   DampErr         ....    0.1000
 Fernandez-Rico         CNVRico         .... off

SCF Procedure:
 Maximum # iterations   MaxIter         ....  1000
 SCF integral mode      SCFMode         .... Direct
   Integral package                     .... LIBINT
 Reset frequency        DirectResetFreq ....    20
 Integral Threshold     Thresh          ....  2.500e-11 Eh
 Primitive CutOff       TCut            ....  2.500e-12 Eh

Convergence Tolerance:
 Convergence Check Mode ConvCheckMode   .... Total+1el-Energy
 Convergence forced     ConvForced      .... 0
 Energy Change          TolE            ....  1.000e-08 Eh
 1-El. energy change                    ....  1.000e-05 Eh
 Orbital Gradient       TolG            ....  1.000e-05
 Orbital Rotation angle TolX            ....  1.000e-05
 DIIS Error             TolErr          ....  5.000e-07


Diagonalization of the overlap matrix:
Smallest eigenvalue                        ... 4.308e-06
Time for diagonalization                   ...    0.016 sec
Threshold for overlap eigenvalues          ... 1.000e-08
Number of eigenvalues below threshold      ... 0
Time for construction of square roots      ...    0.110 sec
Total time needed                          ...    0.126 sec

-------------------
DFT GRID GENERATION
-------------------

General Integration Accuracy     IntAcc      ...  5.670
Radial Grid Type                 RadialGrid  ... Gauss-Chebyshev
Angular Grid (max. acc.)         AngularGrid ... Lebedev-770
Angular grid pruning method      GridPruning ... 3 (G Style)
Weight generation scheme         WeightScheme... Becke
Basis function cutoff            BFCut       ...    1.0000e-11
Integration weight cutoff        WCut        ...    1.0000e-14
Grids for H and He will be reduced by one unit

# of grid points (after initial pruning)     ... 357332 (   0.1 sec)
# of grid points (after weights+screening)   ... 326751 (   0.3 sec)
nearest neighbour list constructed           ...    0.0 sec
Grid point re-assignment to atoms done       ...    0.1 sec
Grid point division into batches done        ...    7.1 sec
Reduced shell lists constructed in    7.3 sec

Total number of grid points                  ...   326751
Total number of batches                      ...     5113
Average number of points per batch           ...       63
Average number of grid points per atom       ...    20422
Average number of shells per batch           ...   106.01 (88.34%)
Average number of basis functions per batch  ...   250.72 (88.28%)
Average number of large shells per batch     ...    88.94 (83.90%)
Average number of large basis fcns per batch ...   212.98 (84.94%)
Maximum spatial batch extension              ...   2.50,  3.33,  4.34 au
Average spatial batch extension              ...   0.03,  0.03,  0.03 au

Time for grid setup =    9.469 sec

------------------------------
INITIAL GUESS: MODEL POTENTIAL
------------------------------
Loading Hartree-Fock densities                     ... done
Calculating cut-offs                               ... done
Setting up the integral package                    ... done
Initializing the effective Hamiltonian             ... done
Starting the Coulomb interaction                   ... done (   0.0 sec)
Reading the grid                                   ... done
Mapping shells                                     ... done
Starting the XC term evaluation                    ... done (   0.4 sec)
  promolecular density results
     # of electrons  =     69.997056844
     EX              =    -59.029958656
     EC              =     -2.387092786
     EX+EC           =    -61.417051441
Transforming the Hamiltonian                       ... done (   0.0 sec)
Diagonalizing the Hamiltonian                      ... done (   0.0 sec)
Back transforming the eigenvectors                 ... done (   0.0 sec)
Now organizing SCF variables                       ... done
                      ------------------
                      INITIAL GUESS DONE (  10.1 sec)
                      ------------------
--------------
SCF ITERATIONS
--------------
ITER       Energy         Delta-E        Max-DP      RMS-DP      [F,P]     Damp
               ***  Starting incremental Fock matrix formation  ***
  0   -454.7481513365   0.000000000000 0.54999159  0.01200569  0.1475813 0.7000
  1   -454.8619299921  -0.113778655608 0.38091406  0.00855587  0.0702825 0.7000
                               ***Turning on DIIS***
  2   -454.9031518808  -0.041221888701 0.78049207  0.01806923  0.0277779 0.0000
  3   -454.9601844979  -0.057032617167 0.21206530  0.00339063  0.0457961 0.0000
  4   -454.9821004430  -0.021915945018 0.06475643  0.00118139  0.0132333 0.0000
  5   -454.9834886971  -0.001388254140 0.05098418  0.00054612  0.0037776 0.0000
  6   -454.9836230199  -0.000134322822 0.02365542  0.00026680  0.0046081 0.0000
                      *** Initiating the SOSCF procedure ***
                           *** Shutting down DIIS ***
                      *** Re-Reading the Fockian *** 
                      *** Removing any level shift *** 
ITER      Energy       Delta-E        Grad      Rot      Max-DP    RMS-DP
  7   -454.98367512  -0.0000521040  0.000860  0.000860  0.034943  0.000448
               *** Restarting incremental Fock matrix formation ***
  8   -454.98369997  -0.0000248469  0.000586  0.002131  0.043841  0.000396
  9   -454.98368218   0.0000177869  0.001582  0.001259  0.008928  0.000103
 10   -454.98370631  -0.0000241254  0.000108  0.000790  0.038103  0.000398
 11   -454.98370560   0.0000007044  0.000205  0.000336  0.002230  0.000047
 12   -454.98370691  -0.0000013050  0.000032  0.000112  0.017675  0.000246
 13   -454.98370682   0.0000000881  0.000050  0.000081  0.003291  0.000058
 14   -454.98370695  -0.0000001292  0.000004  0.000022  0.033538  0.000371
 15   -454.98370695  -0.0000000010  0.000006  0.000014  0.008505  0.000090
                  ***Gradient check signals convergence***
              ***Rediagonalizing the Fockian in SOSCF/NRSCF***

               *****************************************************
               *                     SUCCESS                       *
               *           SCF CONVERGED AFTER  16 CYCLES          *
               *****************************************************


----------------
TOTAL SCF ENERGY
----------------

Total Energy       :         -454.98370695 Eh          -12380.73609 eV

Components:
Nuclear Repulsion  :          459.41981601 Eh           12501.44875 eV
Electronic Energy  :         -914.40352296 Eh          -24882.18485 eV
One Electron Energy:        -1525.06308628 Eh          -41499.07635 eV
Two Electron Energy:          610.65956332 Eh           16616.89150 eV

Virial components:
Potential Energy   :         -907.07274173 Eh          -24682.70415 eV
Kinetic Energy     :          452.08903477 Eh           12301.96806 eV
Virial Ratio       :            2.00640288


DFT components:
N(Alpha)           :       34.999998307582 electrons
N(Beta)            :       34.999998307582 electrons
N(Total)           :       69.999996615163 electrons
E(X)               :      -47.458228429294 Eh       
E(C)               :       -3.069465844410 Eh       
E(XC)              :      -50.527694273704 Eh       
DFET-embed. en.    :        0.000000000000 Eh       

---------------
SCF CONVERGENCE
---------------

  Last Energy change         ...   -2.0256e-09  Tolerance :   1.0000e-08
  Last MAX-Density change    ...    1.1151e-02  Tolerance :   1.0000e-07
  Last RMS-Density change    ...    1.3686e-04  Tolerance :   5.0000e-09
  Last Orbital Gradient      ...    1.7294e-06  Tolerance :   1.0000e-05
  Last Orbital Rotation      ...    4.1157e-06  Tolerance :   1.0000e-05

             **** THE GBW FILE WAS UPDATED (4-CH3O-C6H3-N2-NEB-TS.gbw) ****
             **** DENSITY FILE WAS UPDATED (4-CH3O-C6H3-N2-NEB-TS.scfp.tmp) ****
             **** ENERGY FILE WAS UPDATED (4-CH3O-C6H3-N2-NEB-TS.en.tmp) ****
----------------
ORBITAL ENERGIES
----------------

  NO   OCC          E(Eh)            E(eV) 
   0   2.0000     -19.199810      -522.4534 
   1   2.0000     -14.528671      -395.3452 
   2   2.0000     -14.482133      -394.0789 
   3   2.0000     -10.271030      -279.4889 
   4   2.0000     -10.260816      -279.2110 
   5   2.0000     -10.256987      -279.1068 
   6   2.0000     -10.230278      -278.3800 
   7   2.0000     -10.211939      -277.8810 
   8   2.0000     -10.180221      -277.0179 
   9   2.0000     -10.156704      -276.3780 
  10   2.0000      -1.178583       -32.0709 
  11   2.0000      -1.090595       -29.6766 
  12   2.0000      -0.904221       -24.6051 
  13   2.0000      -0.829509       -22.5721 
  14   2.0000      -0.769605       -20.9420 
  15   2.0000      -0.729563       -19.8524 
  16   2.0000      -0.673997       -18.3404 
  17   2.0000      -0.621224       -16.9044 
  18   2.0000      -0.571019       -15.5382 
  19   2.0000      -0.544489       -14.8163 
  20   2.0000      -0.534019       -14.5314 
  21   2.0000      -0.529164       -14.3993 
  22   2.0000      -0.510624       -13.8948 
  23   2.0000      -0.487500       -13.2656 
  24   2.0000      -0.481246       -13.0954 
  25   2.0000      -0.454928       -12.3792 
  26   2.0000      -0.433295       -11.7905 
  27   2.0000      -0.420459       -11.4413 
  28   2.0000      -0.394474       -10.7342 
  29   2.0000      -0.375668       -10.2225 
  30   2.0000      -0.351223        -9.5573 
  31   2.0000      -0.345630        -9.4051 
  32   2.0000      -0.262969        -7.1558 
  33   2.0000      -0.247188        -6.7263 
  34   2.0000      -0.188685        -5.1344 
  35   0.0000      -0.097836        -2.6623 
  36   0.0000      -0.087469        -2.3802 
  37   0.0000      -0.020107        -0.5471 
  38   0.0000      -0.017779        -0.4838 
  39   0.0000      -0.006099        -0.1660 
  40   0.0000       0.010177         0.2769 
  41   0.0000       0.012112         0.3296 
  42   0.0000       0.018608         0.5063 
  43   0.0000       0.021190         0.5766 
  44   0.0000       0.031478         0.8566 
  45   0.0000       0.037025         1.0075 
  46   0.0000       0.052930         1.4403 
  47   0.0000       0.054435         1.4813 
  48   0.0000       0.058996         1.6054 
  49   0.0000       0.073177         1.9912 
  50   0.0000       0.075273         2.0483 
  51   0.0000       0.075553         2.0559 
  52   0.0000       0.088100         2.3973 
  53   0.0000       0.093223         2.5367 
  54   0.0000       0.093787         2.5521 
  55   0.0000       0.102564         2.7909 
  56   0.0000       0.103243         2.8094 
  57   0.0000       0.109045         2.9673 
  58   0.0000       0.111034         3.0214 
  59   0.0000       0.118539         3.2256 
  60   0.0000       0.119156         3.2424 
  61   0.0000       0.123969         3.3734 
  62   0.0000       0.129188         3.5154 
  63   0.0000       0.129574         3.5259 
  64   0.0000       0.135915         3.6984 
  65   0.0000       0.137282         3.7356 
  66   0.0000       0.142633         3.8813 
  67   0.0000       0.152172         4.1408 
  68   0.0000       0.162646         4.4258 
  69   0.0000       0.165354         4.4995 
  70   0.0000       0.170828         4.6485 
  71   0.0000       0.175840         4.7848 
  72   0.0000       0.188377         5.1260 
  73   0.0000       0.195824         5.3287 
  74   0.0000       0.196894         5.3578 
  75   0.0000       0.209054         5.6887 
  76   0.0000       0.209968         5.7135 
  77   0.0000       0.219910         5.9841 
  78   0.0000       0.228439         6.2162 
  79   0.0000       0.230342         6.2679 
  80   0.0000       0.233908         6.3650 
  81   0.0000       0.242863         6.6086 
  82   0.0000       0.249731         6.7955 
  83   0.0000       0.258632         7.0377 
  84   0.0000       0.258808         7.0425 
  85   0.0000       0.260361         7.0848 
  86   0.0000       0.270602         7.3635 
  87   0.0000       0.274758         7.4765 
  88   0.0000       0.281737         7.6665 
  89   0.0000       0.287576         7.8254 
  90   0.0000       0.288681         7.8554 
  91   0.0000       0.290243         7.8979 
  92   0.0000       0.307148         8.3579 
  93   0.0000       0.314675         8.5628 
  94   0.0000       0.318758         8.6739 
  95   0.0000       0.320198         8.7130 
  96   0.0000       0.331207         9.0126 
  97   0.0000       0.337345         9.1796 
  98   0.0000       0.348458         9.4820 
  99   0.0000       0.352963         9.6046 
 100   0.0000       0.363821         9.9001 
 101   0.0000       0.370410        10.0794 
 102   0.0000       0.377619        10.2755 
 103   0.0000       0.382220        10.4007 
 104   0.0000       0.397340        10.8122 
 105   0.0000       0.401998        10.9389 
 106   0.0000       0.410692        11.1755 
 107   0.0000       0.427424        11.6308 
 108   0.0000       0.433144        11.7864 
 109   0.0000       0.444290        12.0898 
 110   0.0000       0.454307        12.3623 
 111   0.0000       0.456560        12.4236 
 112   0.0000       0.467755        12.7283 
 113   0.0000       0.472362        12.8536 
 114   0.0000       0.478578        13.0228 
 115   0.0000       0.492431        13.3997 
 116   0.0000       0.502327        13.6690 
 117   0.0000       0.511783        13.9263 
 118   0.0000       0.517729        14.0881 
 119   0.0000       0.530751        14.4425 
 120   0.0000       0.536878        14.6092 
 121   0.0000       0.536914        14.6102 
 122   0.0000       0.542639        14.7660 
 123   0.0000       0.548444        14.9239 
 124   0.0000       0.553851        15.0711 
 125   0.0000       0.560981        15.2651 
 126   0.0000       0.566165        15.4061 
 127   0.0000       0.583305        15.8725 
 128   0.0000       0.586190        15.9510 
 129   0.0000       0.598106        16.2753 
 130   0.0000       0.607177        16.5221 
 131   0.0000       0.611720        16.6457 
 132   0.0000       0.621541        16.9130 
 133   0.0000       0.627312        17.0700 
 134   0.0000       0.632664        17.2157 
 135   0.0000       0.635078        17.2814 
 136   0.0000       0.645413        17.5626 
 137   0.0000       0.652498        17.7554 
 138   0.0000       0.660189        17.9647 
 139   0.0000       0.665171        18.1002 
 140   0.0000       0.671881        18.2828 
 141   0.0000       0.686014        18.6674 
 142   0.0000       0.696854        18.9624 
 143   0.0000       0.702548        19.1173 
 144   0.0000       0.706919        19.2362 
 145   0.0000       0.711380        19.3576 
 146   0.0000       0.721339        19.6286 
 147   0.0000       0.722720        19.6662 
 148   0.0000       0.725348        19.7377 
 149   0.0000       0.740228        20.1426 
 150   0.0000       0.753890        20.5144 
 151   0.0000       0.761889        20.7321 
 152   0.0000       0.763121        20.7656 
 153   0.0000       0.771579        20.9957 
 154   0.0000       0.788460        21.4551 
 155   0.0000       0.809995        22.0411 
 156   0.0000       0.814679        22.1685 
 157   0.0000       0.818875        22.2827 
 158   0.0000       0.824462        22.4348 
 159   0.0000       0.837427        22.7875 
 160   0.0000       0.846518        23.0349 
 161   0.0000       0.847639        23.0654 
 162   0.0000       0.858200        23.3528 
 163   0.0000       0.886367        24.1193 
 164   0.0000       0.890982        24.2449 
 165   0.0000       0.900332        24.4993 
 166   0.0000       0.940825        25.6012 
 167   0.0000       0.943718        25.6799 
 168   0.0000       0.955806        26.0088 
 169   0.0000       0.969553        26.3829 
 170   0.0000       0.978594        26.6289 
 171   0.0000       1.002280        27.2734 
 172   0.0000       1.031464        28.0675 
 173   0.0000       1.034765        28.1574 
 174   0.0000       1.046899        28.4876 
 175   0.0000       1.091449        29.6998 
 176   0.0000       1.117980        30.4218 
 177   0.0000       1.126622        30.6570 
 178   0.0000       1.134237        30.8642 
 179   0.0000       1.141708        31.0675 
 180   0.0000       1.171483        31.8777 
 181   0.0000       1.194704        32.5096 
 182   0.0000       1.212366        32.9902 
 183   0.0000       1.233771        33.5726 
 184   0.0000       1.246562        33.9207 
 185   0.0000       1.265201        34.4279 
 186   0.0000       1.304905        35.5083 
 187   0.0000       1.307007        35.5655 
 188   0.0000       1.325900        36.0796 
 189   0.0000       1.335561        36.3425 
 190   0.0000       1.354023        36.8448 
 191   0.0000       1.361808        37.0567 
 192   0.0000       1.376766        37.4637 
 193   0.0000       1.406995        38.2863 
 194   0.0000       1.412455        38.4348 
 195   0.0000       1.419134        38.6166 
 196   0.0000       1.439162        39.1616 
 197   0.0000       1.440761        39.2051 
 198   0.0000       1.444062        39.2949 
 199   0.0000       1.466994        39.9189 
 200   0.0000       1.470234        40.0071 
 201   0.0000       1.492552        40.6144 
 202   0.0000       1.493845        40.6496 
 203   0.0000       1.519698        41.3531 
 204   0.0000       1.546728        42.0886 
 205   0.0000       1.547802        42.1178 
 206   0.0000       1.564895        42.5830 
 207   0.0000       1.577390        42.9230 
 208   0.0000       1.578032        42.9404 
 209   0.0000       1.605734        43.6942 
 210   0.0000       1.617105        44.0037 
 211   0.0000       1.617642        44.0183 
 212   0.0000       1.640781        44.6479 
 213   0.0000       1.643196        44.7136 
 214   0.0000       1.676263        45.6134 
 215   0.0000       1.684386        45.8345 
 216   0.0000       1.693216        46.0747 
 217   0.0000       1.699475        46.2451 
 218   0.0000       1.716940        46.7203 
 219   0.0000       1.734534        47.1991 
 220   0.0000       1.762053        47.9479 
 221   0.0000       1.779243        48.4157 
 222   0.0000       1.810206        49.2582 
 223   0.0000       1.821437        49.5638 
 224   0.0000       1.860869        50.6368 
 225   0.0000       1.885854        51.3167 
 226   0.0000       1.894676        51.5568 
 227   0.0000       1.918204        52.1970 
 228   0.0000       1.936553        52.6963 
 229   0.0000       1.948129        53.0113 
 230   0.0000       1.951804        53.1113 
 231   0.0000       1.951957        53.1155 
 232   0.0000       1.960834        53.3570 
 233   0.0000       1.996101        54.3167 
 234   0.0000       2.002474        54.4901 
 235   0.0000       2.016700        54.8772 
 236   0.0000       2.030311        55.2476 
 237   0.0000       2.030339        55.2483 
 238   0.0000       2.046544        55.6893 
 239   0.0000       2.066841        56.2416 
 240   0.0000       2.081947        56.6527 
 241   0.0000       2.093074        56.9554 
 242   0.0000       2.107822        57.3567 
 243   0.0000       2.122543        57.7573 
 244   0.0000       2.164159        58.8898 
 245   0.0000       2.198282        59.8183 
 246   0.0000       2.235410        60.8286 
 247   0.0000       2.246776        61.1379 
 248   0.0000       2.258015        61.4437 
 249   0.0000       2.275788        61.9273 
 250   0.0000       2.282645        62.1139 
 251   0.0000       2.336426        63.5774 
 252   0.0000       2.357281        64.1449 
 253   0.0000       2.376225        64.6604 
 254   0.0000       2.385292        64.9071 
 255   0.0000       2.387378        64.9638 
 256   0.0000       2.413174        65.6658 
 257   0.0000       2.440980        66.4224 
 258   0.0000       2.493619        67.8548 
 259   0.0000       2.557727        69.5993 
 260   0.0000       2.579333        70.1872 
 261   0.0000       2.582952        70.2857 
 262   0.0000       2.601877        70.8007 
 263   0.0000       2.679481        72.9124 
 264   0.0000       2.697293        73.3971 
 265   0.0000       2.752391        74.8964 
 266   0.0000       2.782022        75.7027 
 267   0.0000       2.852173        77.6116 
 268   0.0000       2.878115        78.3175 
 269   0.0000       2.883333        78.4595 
 270   0.0000       2.928017        79.6754 
 271   0.0000       3.057537        83.1998 
 272   0.0000       3.095104        84.2221 
 273   0.0000       3.101079        84.3846 
 274   0.0000       3.134697        85.2994 
 275   0.0000       3.293793        89.6287 
 276   0.0000       3.363249        91.5186 
 277   0.0000       3.392358        92.3107 
 278   0.0000       3.480537        94.7102 
 279   0.0000       3.491434        95.0067 
 280   0.0000       3.500907        95.2645 
 281   0.0000       3.653245        99.4098 
 282   0.0000       3.767432       102.5170 
 283   0.0000       3.987130       108.4953 

                    ********************************
                    * MULLIKEN POPULATION ANALYSIS *
                    ********************************

-----------------------
MULLIKEN ATOMIC CHARGES
-----------------------
   0 C :    1.455694
   1 C :    0.917755
   2 C :    1.142534
   3 C :   -1.584939
   4 C :    0.910342
   5 C :    0.648500
   6 H :   -1.193352
   7 H :   -0.795750
   8 H :   -0.786624
   9 N :    0.465257
  10 N :   -0.872888
  11 O :   -0.625669
  12 C :    1.239058
  13 H :   -0.552082
  14 H :   -0.183915
  15 H :   -0.183920
Sum of atomic charges:    0.0000000

--------------------------------
MULLIKEN REDUCED ORBITAL CHARGES
--------------------------------
  0 C s       :     2.820736  s :     2.820736
      pz      :     0.964241  p :     1.971631
      px      :     0.678698
      py      :     0.328691
      dz2     :     0.016910  d :    -0.248060
      dxz     :     0.018284
      dyz     :    -0.015993
      dx2y2   :    -0.128681
      dxy     :    -0.138580
  1 C s       :     3.037698  s :     3.037698
      pz      :     0.913183  p :     2.282822
      px      :     0.771602
      py      :     0.598037
      dz2     :     0.010827  d :    -0.238275
      dxz     :     0.024251
      dyz     :    -0.005416
      dx2y2   :    -0.116090
      dxy     :    -0.151848
  2 C s       :     3.186967  s :     3.186967
      pz      :     0.988977  p :     1.611528
      px      :     0.362613
      py      :     0.259938
      dz2     :     0.015864  d :     0.058970
      dxz     :    -0.009428
      dyz     :     0.032420
      dx2y2   :     0.002884
      dxy     :     0.017230
  3 C s       :     4.219810  s :     4.219810
      pz      :     0.674176  p :     3.350434
      px      :     1.312035
      py      :     1.364223
      dz2     :     0.010607  d :     0.014694
      dxz     :     0.012583
      dyz     :     0.009093
      dx2y2   :     0.023051
      dxy     :    -0.040640
  4 C s       :     2.862053  s :     2.862053
      pz      :     0.959397  p :     2.305491
      px      :     0.616979
      py      :     0.729116
      dz2     :     0.006618  d :    -0.077885
      dxz     :     0.032576
      dyz     :    -0.012087
      dx2y2   :    -0.012364
      dxy     :    -0.092629
  5 C s       :     3.605558  s :     3.605558
      pz      :     0.860797  p :     1.844317
      px      :     0.557557
      py      :     0.425963
      dz2     :     0.020048  d :    -0.098375
      dxz     :     0.030578
      dyz     :     0.005844
      dx2y2   :    -0.021228
      dxy     :    -0.133616
  6 H s       :     2.220488  s :     2.220488
      pz      :     0.011010  p :    -0.027136
      px      :    -0.051464
      py      :     0.013319
  7 H s       :     1.803692  s :     1.803692
      pz      :     0.007996  p :    -0.007942
      px      :    -0.020998
      py      :     0.005059
  8 H s       :     1.808786  s :     1.808786
      pz      :     0.009726  p :    -0.022162
      px      :    -0.030252
      py      :    -0.001635
  9 N s       :     3.482575  s :     3.482575
      pz      :     1.153878  p :     2.836487
      px      :     0.541794
      py      :     1.140816
      dz2     :     0.028948  d :     0.215681
      dxz     :     0.075142
      dyz     :     0.007282
      dx2y2   :     0.035690
      dxy     :     0.068619
 10 N s       :     4.598638  s :     4.598638
      pz      :     1.098161  p :     3.209922
      px      :     1.238135
      py      :     0.873626
      dz2     :     0.008630  d :     0.064328
      dxz     :     0.021113
      dyz     :     0.002281
      dx2y2   :     0.007854
      dxy     :     0.024451
 11 O s       :     4.089557  s :     4.089557
      pz      :     1.740266  p :     4.468879
      px      :     1.211018
      py      :     1.517595
      dz2     :     0.007627  d :     0.067233
      dxz     :     0.013662
      dyz     :     0.012768
      dx2y2   :     0.020468
      dxy     :     0.012709
 12 C s       :     2.946678  s :     2.946678
      pz      :     0.655398  p :     1.842624
      px      :     0.551539
      py      :     0.635686
      dz2     :    -0.015052  d :    -0.028359
      dxz     :    -0.012309
      dyz     :     0.001790
      dx2y2   :    -0.003376
      dxy     :     0.000589
 13 H s       :     1.578954  s :     1.578954
      pz      :    -0.010614  p :    -0.026871
      px      :    -0.026771
      py      :     0.010513
 14 H s       :     1.209597  s :     1.209597
      pz      :    -0.009368  p :    -0.025682
      px      :    -0.018094
      py      :     0.001780
 15 H s       :     1.209598  s :     1.209598
      pz      :    -0.017103  p :    -0.025678
      px      :    -0.008968
      py      :     0.000393


                     *******************************
                     * LOEWDIN POPULATION ANALYSIS *
                     *******************************

----------------------
LOEWDIN ATOMIC CHARGES
----------------------
   0 C :    0.038000
   1 C :    0.040135
   2 C :   -0.312098
   3 C :    0.041978
   4 C :   -0.059206
   5 C :   -0.223383
   6 H :   -0.010301
   7 H :    0.008988
   8 H :   -0.010212
   9 N :   -0.025280
  10 N :    0.309612
  11 O :    0.114793
  12 C :    0.135543
  13 H :   -0.019692
  14 H :   -0.014437
  15 H :   -0.014441

-------------------------------
LOEWDIN REDUCED ORBITAL CHARGES
-------------------------------
  0 C s       :     2.604265  s :     2.604265
      pz      :     0.817965  p :     2.690009
      px      :     0.947232
      py      :     0.924812
      dz2     :     0.076765  d :     0.667726
      dxz     :     0.100396
      dyz     :     0.074691
      dx2y2   :     0.187565
      dxy     :     0.228309
  1 C s       :     2.616186  s :     2.616186
      pz      :     0.762535  p :     2.640527
      px      :     0.946797
      py      :     0.931196
      dz2     :     0.074182  d :     0.703151
      dxz     :     0.128633
      dyz     :     0.080213
      dx2y2   :     0.195993
      dxy     :     0.224129
  2 C s       :     2.595837  s :     2.595837
      pz      :     0.834121  p :     2.648394
      px      :     0.778194
      py      :     1.036079
      dz2     :     0.100385  d :     1.067867
      dxz     :     0.130725
      dyz     :     0.161942
      dx2y2   :     0.402190
      dxy     :     0.272625
  3 C s       :     2.790359  s :     2.790359
      pz      :     0.580428  p :     2.612575
      px      :     0.968809
      py      :     1.063338
      dz2     :     0.068401  d :     0.555089
      dxz     :     0.095999
      dyz     :     0.072509
      dx2y2   :     0.157263
      dxy     :     0.160918
  4 C s       :     2.633482  s :     2.633482
      pz      :     0.803932  p :     2.716426
      px      :     0.989351
      py      :     0.923144
      dz2     :     0.064960  d :     0.709298
      dxz     :     0.090718
      dyz     :     0.070078
      dx2y2   :     0.191605
      dxy     :     0.291937
  5 C s       :     2.577924  s :     2.577924
      pz      :     0.717781  p :     2.517845
      px      :     0.807542
      py      :     0.992522
      dz2     :     0.123113  d :     1.127613
      dxz     :     0.189385
      dyz     :     0.166982
      dx2y2   :     0.335149
      dxy     :     0.312984
  6 H s       :     0.724789  s :     0.724789
      pz      :     0.083981  p :     0.285512
      px      :     0.094876
      py      :     0.106655
  7 H s       :     0.735275  s :     0.735275
      pz      :     0.074181  p :     0.255737
      px      :     0.069974
      py      :     0.111582
  8 H s       :     0.741264  s :     0.741264
      pz      :     0.074457  p :     0.268948
      px      :     0.085119
      py      :     0.109372
  9 N s       :     2.928949  s :     2.928949
      pz      :     1.037616  p :     3.303910
      px      :     1.266775
      py      :     0.999519
      dz2     :     0.111938  d :     0.792421
      dxz     :     0.266236
      dyz     :     0.020588
      dx2y2   :     0.199501
      dxy     :     0.194157
 10 N s       :     3.243015  s :     3.243015
      pz      :     1.025118  p :     3.164276
      px      :     1.302572
      py      :     0.836586
      dz2     :     0.037528  d :     0.283097
      dxz     :     0.087493
      dyz     :     0.005689
      dx2y2   :     0.091609
      dxy     :     0.060778
 11 O s       :     3.216609  s :     3.216609
      pz      :     1.555020  p :     4.323420
      px      :     1.310149
      py      :     1.458250
      dz2     :     0.035958  d :     0.345178
      dxz     :     0.065571
      dyz     :     0.037788
      dx2y2   :     0.102786
      dxy     :     0.103076
 12 C s       :     2.609921  s :     2.609921
      pz      :     0.958530  p :     2.653098
      px      :     0.872804
      py      :     0.821764
      dz2     :     0.071340  d :     0.601437
      dxz     :     0.068056
      dyz     :     0.172949
      dx2y2   :     0.154176
      dxy     :     0.134916
 13 H s       :     0.749514  s :     0.749514
      pz      :     0.083401  p :     0.270178
      px      :     0.118599
      py      :     0.068178
 14 H s       :     0.742026  s :     0.742026
      pz      :     0.110647  p :     0.272410
      px      :     0.076841
      py      :     0.084922
 15 H s       :     0.742024  s :     0.742024
      pz      :     0.131475  p :     0.272417
      px      :     0.067827
      py      :     0.073114


                      *****************************
                      * MAYER POPULATION ANALYSIS *
                      *****************************

  NA   - Mulliken gross atomic population
  ZA   - Total nuclear charge
  QA   - Mulliken gross atomic charge
  VA   - Mayer's total valence
  BVA  - Mayer's bonded valence
  FA   - Mayer's free valence

  ATOM       NA         ZA         QA         VA         BVA        FA
  0 C      4.5443     6.0000     1.4557     0.8564     0.8564    -0.0000
  1 C      5.0822     6.0000     0.9178     2.0115     2.0115     0.0000
  2 C      4.8575     6.0000     1.1425     2.4563     2.4563    -0.0000
  3 C      7.5849     6.0000    -1.5849     1.8887     1.8887     0.0000
  4 C      5.0897     6.0000     0.9103     2.4137     2.4137    -0.0000
  5 C      5.3515     6.0000     0.6485     2.3295     2.3295     0.0000
  6 H      2.1934     1.0000    -1.1934    -0.6389    -0.6389    -0.0000
  7 H      1.7957     1.0000    -0.7957     0.1760     0.1760     0.0000
  8 H      1.7866     1.0000    -0.7866     0.1994     0.1994     0.0000
  9 N      6.5347     7.0000     0.4653     2.0570     2.0570    -0.0000
 10 N      7.8729     7.0000    -0.8729     1.0550     1.0550     0.0000
 11 O      8.6257     8.0000    -0.6257     1.2055     1.2055     0.0000
 12 C      4.7609     6.0000     1.2391     3.4094     3.4094    -0.0000
 13 H      1.5521     1.0000    -0.5521     0.4514     0.4514     0.0000
 14 H      1.1839     1.0000    -0.1839     0.6814     0.6814     0.0000
 15 H      1.1839     1.0000    -0.1839     0.6814     0.6814    -0.0000

  Mayer bond orders larger than 0.1
B(  0-C ,  1-C ) :   1.8257 B(  0-C ,  2-C ) :  -0.2279 B(  0-C ,  4-C ) :  -0.4477 
B(  0-C ,  5-C ) :   0.4200 B(  0-C ,  6-H ) :  -1.2198 B(  0-C ,  7-H ) :   0.2443 
B(  0-C , 11-O ) :   0.1749 B(  0-C , 12-C ) :  -0.1193 B(  1-C ,  2-C ) :   0.7358 
B(  1-C ,  3-C ) :  -0.1977 B(  1-C ,  4-C ) :   0.3758 B(  1-C ,  5-C ) :  -0.4790 
B(  1-C ,  6-H ) :   0.2992 B(  1-C ,  7-H ) :  -0.7176 B(  1-C ,  9-N ) :  -0.1144 
B(  1-C , 10-N ) :   0.1505 B(  2-C ,  3-C ) :   0.5508 B(  2-C ,  4-C ) :   0.1584 
B(  2-C ,  5-C ) :   0.2322 B(  2-C ,  6-H ) :  -0.2232 B(  2-C ,  7-H ) :   0.7740 
B(  2-C ,  9-N ) :   0.9614 B(  2-C , 10-N ) :  -0.4997 B(  3-C ,  4-C ) :   1.2814 
B(  3-C ,  7-H ) :   0.1107 B(  4-C ,  5-C ) :   1.0079 B(  4-C ,  6-H ) :   0.1486 
B(  4-C ,  8-H ) :  -0.1063 B(  5-C ,  6-H ) :   0.5002 B(  5-C ,  7-H ) :  -0.1275 
B(  5-C ,  8-H ) :   0.3480 B(  5-C , 11-O ) :   0.2425 B(  7-H ,  9-N ) :  -0.1240 
B(  8-H , 11-O ) :  -0.1113 B(  9-N , 10-N ) :   1.2053 B( 11-O , 12-C ) :   0.8458 
B( 12-C , 13-H ) :   0.7824 B( 12-C , 14-H ) :   0.8841 B( 12-C , 15-H ) :   0.8841 
B( 13-H , 14-H ) :  -0.1376 B( 13-H , 15-H ) :  -0.1376 

-------
TIMINGS
-------

Total SCF time: 0 days 0 hours 0 min 52 sec 

Total time                  ....      52.468 sec
Sum of individual times     ....      51.637 sec  ( 98.4%)

Fock matrix formation       ....      39.810 sec  ( 75.9%)
  XC integration            ....       6.632 sec  ( 16.7% of F)
    Basis function eval.    ....       1.479 sec  ( 22.3% of XC)
    Density eval.           ....       1.586 sec  ( 23.9% of XC)
    XC-Functional eval.     ....       0.176 sec  (  2.7% of XC)
    XC-Potential eval.      ....       2.019 sec  ( 30.4% of XC)
Diagonalization             ....       0.265 sec  (  0.5%)
Density matrix formation    ....       0.248 sec  (  0.5%)
Population analysis         ....       0.063 sec  (  0.1%)
Initial guess               ....       0.624 sec  (  1.2%)
Orbital Transformation      ....       0.000 sec  (  0.0%)
Orbital Orthonormalization  ....       0.000 sec  (  0.0%)
DIIS solution               ....       0.861 sec  (  1.6%)
SOSCF solution              ....       0.297 sec  (  0.6%)
Grid generation             ....       9.469 sec  ( 18.0%)

-------------------------   --------------------
FINAL SINGLE POINT ENERGY      -454.983706953999
-------------------------   --------------------



------------------------------------------------------------------------------- 
                         Nudged Elastic Band Calculation                       
------------------------------------------------------------------------------- 

Number of images (incl. end points)     ....  14
Number of intermediate images           ....  12
Number of optimized images              ....  12
Optimization of end points before NEB   ....  NO
Number of atoms                         ....  16
Number of (active) degrees of freedom   ....  48
Constrained atoms                       ....  None

-----------------------------------------
  REACTANT (ANGSTROEM)
-----------------------------------------
C     -1.942510    -0.222537     0.184341 
C     -0.628903    -0.287133    -0.224299 
C      0.062855     0.950840    -0.319577 
C     -0.398037     2.266874    -0.054286 
C     -1.746469     2.232650     0.355697 
C     -2.504361     1.055406     0.476990 
H     -2.523983    -1.135440     0.276476 
H     -0.153798    -1.241023    -0.459817 
H     -2.265784     3.163763     0.602601 
N      1.379303     0.889683    -0.728680 
N      2.450979     0.894951    -1.056502 
O     -3.788551     1.206925     0.884817 
C     -4.624834     0.058974     1.032879 
H     -5.593559     0.442831     1.365865 
H     -4.223892    -0.630002     1.790930 
H     -4.749469    -0.468362     0.075557 

-----------------------------------------
  PRODUCT (ANGSTROEM)
-----------------------------------------
C     -2.038600    -0.011203     0.233554 
C     -0.686875     0.031128    -0.176815 
C     -0.213407     1.333071    -0.199224 
C     -0.855058     2.368855     0.095099 
C     -2.169919     2.456155     0.506395 
C     -2.761610     1.162781     0.565854 
H     -2.525533    -0.982228     0.291282 
H     -0.130917    -0.868969    -0.432086 
H     -2.740864     3.345220     0.765227 
N      2.863011    -0.133610    -1.280006 
N      3.678974     0.587895    -1.460695 
O     -4.069570     1.158379     0.966389 
C     -4.754639    -0.086227     1.059158 
H     -5.768165     0.157200     1.392793 
H     -4.276176    -0.750758     1.795114 
H     -4.801673    -0.589279     0.080953 



----------------------
NEB settings
----------------------
Method type                             ....  climbing image
Threshold for climbing image            ....  2.00e-02 Eh/Bohr 
Free endpoints                          ....  off 
Tangent type                            ....  improved 
Number of intermediate images           ....  12 
Number of images free to move           ....  12 
Spring type for image distribution      ....  distance between adjacent images 
Spring constant                         ....  1.00e-01 Eh/Bohr^2 
Spring force perp. to the path          ....  tan 
Generation of initial path              ....  image dependent pair potential 
Initial path via TS guess               ....  off 

Minimization of RMSD: Rotation          ....  always 
Minimization of RMSD: Translation type  ....  centroid 
Center fixed to origin                  ....  true 

Reparametrization of the path           ....  on reset 
               Every 0 iterations
               Type of interpolation    ....  linear
Convergence thresholds:
Convergence monitored for               ....  all images
Scaling factor                          ....  100.00

Convergence parameters for regular images:
               Max(|Fp|)                ....  1.00e-01 Eh/Bohr
               RMS(Fp)                  ....  5.00e-02 Eh/Bohr

Convergence parameters for climbing image:
               Max(|F|)                 ....  1.00e-03 Eh/Bohr
               RMS(F)                   ....  5.00e-04 Eh/Bohr
Optimization method:
Method                                  ....  L-BFGS (global)
Max. iterations                         ....  1000 
Step size                               ....  1.00 
Maximum allowed step size               ....  0.10 Bohr
Turn on L-BFGS                          ....  0.0000 Eh/Bohr

LBFGS parameters: 
               Memory                   ....  7 
Generation of  the initial path:
Minimize RMSD between reactant and product configurations     .... done
       RMSD before minimization         ....  1.2517 Bohr
       RMSD after minimization          ....  1.2506 Bohr
Performing linear interpolation         ....  done
Interpolation using                     ....  IDPP (Image Dependent Pair Potential)
IDPP-Settings:
       Convergence tolerance            ....  0.0100 1/Ang.^3
       Max. numer of iterations         ....    7000
       Spring constant                  ....  1.0000 1/Ang.^4
       Time step                        ....  0.0100 fs
       Max. movement per iteration      ....  0.0500 Ang.
       Full print                       ....  false 
IDPP successfuly converged in 81 iterations
Displacement along initial path:              5.0062 Bohr
Writing initial trajectory to file      ....  4-CH3O-C6H3-N2-NEB-TS_initial_path.trj



----------------------
NEB OPTIMIZATION      
----------------------

Following output files will be written:
Energy profile during opt. written to    ....  4-CH3O-C6H3-N2-NEB-TS.interp
Optimization log-file                    ....  4-CH3O-C6H3-N2-NEB-TS.log
Current trajectory will be written to    ....  4-CH3O-C6H3-N2-NEB-TS_MEP.trj
       and to allxyz file                ....  4-CH3O-C6H3-N2-NEB-TS_MEP.allxyz
       and individual images to xyz file ....  4-CH3O-C6H3-N2-NEB-TS_im{NIm}.xyz
Trajectory history will be written to    ....  4-CH3O-C6H3-N2-NEB-TS_MEP_ALL.trj
Converged CI will be written to          ....  4-CH3O-C6H3-N2-NEB-TS_CI-NEB_converged.xyz
Converged TS will be written to          ....  4-CH3O-C6H3-N2-NEB-TS.xyz

Single point energy and gradient calculation of reactant and
product configurations (have to be performed only once)
Properties of fixed NEB end points:
               Reactant:
                         E               ....   -454.983707 Eh
                         RMS(F)          ....      0.000139 Eh/Bohr
                         MAX(|F|)        ....      0.000563 Eh/Bohr
               Product:
                         E               ....   -455.014530 Eh
                         RMS(F)          ....      0.000136 Eh/Bohr
                         MAX(|F|)        ....      0.000541 Eh/Bohr



Starting iterations:

Optim.  Iteration  HEI  E(HEI)-E(0)  max(|Fp|)   RMS(Fp)    dS
Switch-on CI threshold               0.020000 
List of participating nodes    ...  4-CH3O-C6H3-N2-NEB-TS.hostnames
LBFGS(G)     0      2    0.015080    0.094985   0.025090  5.0061       
LBFGS(G)     1      2    0.015073    0.094910   0.025065  5.0061       
LBFGS(G)     2      2    0.010912    0.033064   0.009150  5.0241       
LBFGS(G)     3      2    0.009751    0.049993   0.009920  5.0388       
LBFGS(G)     4      2    0.008768    0.021615   0.005335  5.0418       
LBFGS(G)     5      2    0.008126    0.015213   0.004079  5.0578       

Image  2 will be converted to a climbing image in the next iteration (max(|Fp|) < 0.0200) 

Optim.  Iteration  CI   E(CI)-E(0)   max(|Fp|)   RMS(Fp)    dS     max(|FCI|)   RMS(FCI)
Convergence thresholds               0.100000   0.050000            0.001000    0.000500 
LBFGS(G)     6      2    0.007885    0.008351   0.003227  5.0600    0.019738    0.006635       
LBFGS(G)     7      2    0.007849    0.010133   0.003271  5.0645    0.022018    0.007327       
LBFGS(G)     8      2    0.008132    0.013447   0.004403  5.0981    0.018946    0.008967       
LBFGS(G)     9      2    0.008631    0.047710   0.006661  5.1668    0.038629    0.014004       
LBFGS(G)    10      2    0.008098    0.010418   0.003242  5.1870    0.009592    0.004899       
LBFGS(G)    11      2    0.007989    0.014093   0.002190  5.1843    0.010432    0.003826       
LBFGS(G)    12      2    0.008169    0.007897   0.002406  5.1992    0.017361    0.005781       
LBFGS(G)    13      2    0.008503    0.038301   0.005702  5.2804    0.012374    0.006423       
LBFGS(G)    14      2    0.008168    0.046569   0.006157  5.3451    0.009481    0.005427       
LBFGS(G)    15      2    0.007961    0.024971   0.003750  5.3340    0.005737    0.003639       
LBFGS(G)    16      2    0.007620    0.013932   0.002881  5.3618    0.007205    0.004036       
LBFGS(G)    17      2    0.007454    0.015900   0.004568  5.4353    0.011266    0.006469       
LBFGS(G)    18      2    0.007380    0.028491   0.005957  5.5504    0.015627    0.008104       
LBFGS(G)    19      2    0.007253    0.037224   0.006456  5.7089    0.015263    0.008402       
LBFGS(G)    20      2    0.006860    0.045852   0.006432  5.8984    0.010109    0.005998       
LBFGS(G)    21      2    0.006848    0.035854   0.005334  6.1451    0.009090    0.005148       
LBFGS(G)    22      2    0.007070    0.016455   0.003490  6.3635    0.008767    0.005157       
LBFGS(G)    23      2    0.007162    0.013700   0.003274  6.5087    0.007848    0.003981       
LBFGS(G)    24      2    0.007520    0.028026   0.005209  6.7473    0.007912    0.004248       
LBFGS(G)    25      2    0.008083    0.030069   0.005784  7.0250    0.011273    0.006792       
LBFGS(G)    26      2    0.007911    0.026148   0.004063  7.0704    0.009687    0.004805       
LBFGS(G)    27      2    0.007891    0.026870   0.003765  7.1876    0.012061    0.004869       
LBFGS(G)    28      2    0.007823    0.027863   0.004571  7.3908    0.007297    0.004238       
LBFGS(G)    29      2    0.007755    0.020006   0.003946  7.5989    0.011313    0.005225       
LBFGS(G)    30      2    0.007614    0.024357   0.004658  7.5745    0.009141    0.004281       
LBFGS(G)    31      2    0.007788    0.011622   0.003467  7.5910    0.010290    0.005997       
LBFGS(G)    32      2    0.007979    0.034777   0.006000  7.6094    0.019585    0.006651       
LBFGS(G)    33      2    0.008015    0.012098   0.002672  7.5962    0.010262    0.004916       
LBFGS(G)    34      2    0.008041    0.014835   0.002824  7.5796    0.010281    0.004973       
LBFGS(G)    35      2    0.008098    0.017159   0.003813  7.5761    0.007494    0.004263       
LBFGS(G)    36      2    0.007938    0.060115   0.009347  7.5844    0.005875    0.003556       
LBFGS(G)    37      2    0.007851    0.016976   0.003575  7.5675    0.003695    0.002606       
LBFGS(G)    38      2    0.007769    0.007454   0.001666  7.5661    0.003550    0.002650       
LBFGS(G)    39      2    0.007628    0.013511   0.002456  7.5783    0.003753    0.002772       
LBFGS(G)    40      2    0.007472    0.012654   0.003171  7.6060    0.003782    0.002608       
LBFGS(G)    41      2    0.007358    0.030096   0.005756  7.6836    0.004901    0.003020       
LBFGS(G)    42      2    0.007322    0.014030   0.003000  7.7092    0.004444    0.002744       
LBFGS(G)    43      2    0.007262    0.007734   0.001931  7.7427    0.003028    0.002057       
LBFGS(G)    44      2    0.007229    0.007587   0.002005  7.7646    0.002847    0.001726       
LBFGS(G)    45      2    0.007197    0.018698   0.002766  7.7752    0.004098    0.002297       
LBFGS(G)    46      2    0.007211    0.029013   0.004590  7.7744    0.006170    0.002842       
LBFGS(G)    47      2    0.007175    0.013091   0.002256  7.7533    0.003833    0.001975       
LBFGS(G)    48      2    0.007142    0.013195   0.001802  7.7044    0.001956    0.001222       
LBFGS(G)    49      2    0.007135    0.022480   0.002740  7.6380    0.002734    0.001756       
LBFGS(G)    50      2    0.007165    0.013133   0.003015  7.4941    0.004240    0.002826       
LBFGS(G)    51      2    0.007142    0.053564   0.007279  7.4478    0.006627    0.003263       
LBFGS(G)    52      2    0.007090    0.012701   0.003033  7.4390    0.003359    0.002379       
LBFGS(G)    53      2    0.007051    0.010202   0.002208  7.4269    0.002680    0.001759       
LBFGS(G)    54      2    0.007044    0.015029   0.002501  7.4138    0.002686    0.001500       
LBFGS(G)    55      2    0.007095    0.047666   0.006365  7.3815    0.003605    0.001911       
LBFGS(G)    56      2    0.007089    0.008375   0.001747  7.3818    0.002171    0.001622       
LBFGS(G)    57      2    0.007084    0.003013   0.001191  7.3797    0.001865    0.001414       
LBFGS(G)    58      2    0.007070    0.009066   0.001456  7.3719    0.001621    0.000905       
LBFGS(G)    59      2    0.007078    0.009271   0.001455  7.3618    0.001412    0.000904       
LBFGS(G)    60      2    0.007091    0.016644   0.003234  7.3585    0.002109    0.001534       
LBFGS(G)    61      2    0.007094    0.011008   0.002596  7.3665    0.002256    0.001733       
LBFGS(G)    62      2    0.007059    0.005942   0.001507  7.3918    0.002202    0.001505       
LBFGS(G)    63      2    0.007031    0.005746   0.001367  7.4281    0.002515    0.001358       
LBFGS(G)    64      2    0.007044    0.014810   0.002883  7.4804    0.003787    0.001733       
LBFGS(G)    65      2    0.007051    0.005911   0.001540  7.4764    0.003081    0.001581       
LBFGS(G)    66      2    0.007057    0.012339   0.001777  7.4425    0.002187    0.001064       
LBFGS(G)    67      2    0.007068    0.007845   0.001837  7.4090    0.001799    0.000872       
LBFGS(G)    68      2    0.007058    0.009212   0.001701  7.3529    0.002186    0.001086       
LBFGS(G)    69      2    0.007049    0.007967   0.001365  7.3236    0.002202    0.000992       
LBFGS(G)    70      2    0.007051    0.014274   0.001842  7.2714    0.003063    0.001341       
LBFGS(G)    71      2    0.007049    0.014428   0.002313  7.2394    0.001872    0.000822       
LBFGS(G)    72      2    0.007046    0.006597   0.001064  7.2410    0.002194    0.000729       
LBFGS(G)    73      2    0.007047    0.002023   0.000579  7.2315    0.001217    0.000526       
LBFGS(G)    74      2    0.007050    0.001975   0.000651  7.2117    0.001208    0.000637       
LBFGS(G)    75      2    0.007048    0.003755   0.000790  7.1894    0.001042    0.000467       
LBFGS(G)    76      2    0.007079    0.012585   0.002447  7.1459    0.009411    0.003536       
LBFGS(G)    77      2    0.007044    0.002129   0.000635  7.1491    0.001613    0.000607       
LBFGS(G)    78      2    0.007042    0.001564   0.000489  7.1434    0.000668    0.000366       

                                .--------------------.
          ----------------------| CI-NEB convergence |-------------------------
          Item                value                   Tolerance       Converged
          ---------------------------------------------------------------------
          RMS(Fp)             0.0004890773            0.0500000000      YES
          MAX(|Fp|)           0.0015644556            0.1000000000      YES
          RMS(FCI)            0.0003664583            0.0005000000      YES
          MAX(|FCI|)          0.0006684551            0.0010000000      YES
          ---------------------------------------------------------------------

The elastic band and climbing image have converged succesfully to a MEP in 78 iterations!


                    *********************H U R R A Y*********************
                    ***        THE NEB OPTIMIZATION HAS CONVERGED     ***
                    *****************************************************



---------------------------------------------------------------
                         PATH SUMMARY              
---------------------------------------------------------------
All forces in Eh/Bohr.

Image Dist.(Ang.)    E(Eh)   dE(kcal/mol)  max(|Fp|)  RMS(Fp)
  0     0.000    -454.98371      0.00       0.00058   0.00024
  1     0.220    -454.98170      1.26       0.00157   0.00104
  2     0.408    -454.97666      4.42       0.00049   0.00032 <= CI
  3     0.713    -454.98693     -2.02       0.00079   0.00046
  4     1.021    -454.99946     -9.88       0.00091   0.00052
  5     1.332    -455.00725    -14.77       0.00048   0.00037
  6     1.639    -455.01091    -17.07       0.00123   0.00069
  7     1.943    -455.01270    -18.19       0.00086   0.00047
  8     2.241    -455.01332    -18.58       0.00109   0.00045
  9     2.546    -455.01358    -18.74       0.00126   0.00047
 10     2.855    -455.01388    -18.94       0.00079   0.00034
 11     3.159    -455.01420    -19.14       0.00062   0.00022
 12     3.470    -455.01445    -19.29       0.00018   0.00009
 13     3.780    -455.01453    -19.34       0.00054   0.00024

Straight line distance between images along the path:
        D( 0- 1) =   0.2197 Ang.
        D( 1- 2) =   0.1886 Ang.
        D( 2- 3) =   0.3051 Ang.
        D( 3- 4) =   0.3072 Ang.
        D( 4- 5) =   0.3115 Ang.
        D( 5- 6) =   0.3067 Ang.
        D( 6- 7) =   0.3045 Ang.
        D( 7- 8) =   0.2974 Ang.
        D( 8- 9) =   0.3054 Ang.
        D( 9-10) =   0.3094 Ang.
        D(10-11) =   0.3039 Ang.
        D(11-12) =   0.3104 Ang.
        D(12-13) =   0.3106 Ang.

---------------------------------------------------------------
               INFORMATION ABOUT SADDLE POINT     
---------------------------------------------------------------

Climbing image                            ....  2 
Energy                                    ....  -454.97666482 Eh
Max. abs. force                           ....  6.6846e-04 Eh/Bohr

-----------------------------------------
  SADDLE POINT (ANGSTROEM)
-----------------------------------------
C     -0.014275    -0.807718    -0.071767 
C      1.313670    -0.890997    -0.486561 
C      1.944208     0.344498    -0.563308 
C      1.544058     1.595948    -0.322731 
C      0.201297     1.646786     0.093545 
C     -0.566243     0.467998     0.217635 
H     -0.602266    -1.716710     0.022741 
H      1.796061    -1.839865    -0.723818 
H     -0.296671     2.589579     0.335007 
N      3.495412     0.236363    -1.048859 
N      4.524949     0.553838    -1.334332 
O     -1.854571     0.641578     0.628797 
C     -2.696404    -0.496697     0.779455 
H     -3.663091    -0.107240     1.112336 
H     -2.300518    -1.189436     1.537858 
H     -2.825616    -1.027925    -0.175998 

-----------------------------------------
  FORCES (Eh/Bohr)
-----------------------------------------
C     -0.000003     0.000216     0.000021 
C     -0.000263    -0.000191     0.000063 
C      0.000341    -0.000151    -0.000119 
C      0.000317     0.000252    -0.000073 
C     -0.000264    -0.000537     0.000030 
C      0.000113     0.000027    -0.000032 
H      0.000057     0.000187     0.000000 
H     -0.000057    -0.000289    -0.000010 
H      0.000091     0.000148    -0.000014 
N     -0.000121     0.000355     0.000071 
N     -0.000668    -0.000013     0.000205 
O      0.000526     0.000305    -0.000132 
C      0.000075    -0.000224    -0.000045 
H     -0.000202    -0.000090     0.000053 
H      0.000046    -0.000003     0.000046 
H      0.000012     0.000008    -0.000063 

-----------------------------------------
  UNIT TANGENT
-----------------------------------------
C     -0.073217     0.016303     0.023968 
C     -0.039690    -0.010058     0.011209 
C     -0.355978     0.040488     0.112942 
C     -0.133876    -0.160348     0.025898 
C     -0.097063     0.062026     0.035597 
C     -0.053646     0.002862     0.016706 
H     -0.052485     0.004342     0.016492 
H      0.008941     0.019394    -0.000918 
H     -0.046371     0.074305     0.021208 
N      0.591143    -0.366667    -0.215765 
N      0.380876     0.294597    -0.088907 
O     -0.063053     0.017933     0.021018 
C     -0.019083     0.008253     0.006631 
H     -0.028305    -0.023945     0.006417 
H     -0.008495     0.010069     0.005720 
H     -0.009697     0.010446     0.001784 
 => Unit tangent is an approximation to the TS mode at the saddle point

Next a TS optimization is performed on the CI from the NEB run.

         *************************************************************
         *                       TS OPTIMIZATION                     *
         *************************************************************

Geometry optimization settings:
Update method            Update   .... Bofill
Choice of coordinates    CoordSys .... Z-matrix Internals
Initial Hessian          InHess   .... Read

Convergence Tolerances:
Energy Change            TolE     ....  1.0000e-06 Eh
Max. Gradient            TolMAXG  ....  1.0000e-04 Eh/bohr
RMS Gradient             TolRMSG  ....  3.0000e-05 Eh/bohr
Max. Displacement        TolMAXD  ....  1.0000e-03 bohr
RMS Displacement         TolRMSD  ....  6.0000e-04 bohr

------------------------------------------------------------------------------
                        ORCA OPTIMIZATION COORDINATE SETUP
------------------------------------------------------------------------------

The optimization will be done in new redundant internal coordinates
Making redundant internal coordinates   ...  (new redundants) done
Following TS mode number                ...     0
TS-active-atoms for coordinate setup... 2 9 10 
Evaluating the initial hessian          ... (Reading Exact Hessian)...  
InHessName: 4-CH3O-C6H3-N2-NEB-TS.appr.hess	The file <4-CH3O-C6H3-N2-NEB-TS.appr.hess> is opened as a .hess file
done
done
Diagonalizing the Hessian               .... done
Dimension of the hessian                .... 73
Lowest eigenvalues of the non projected Hessian:
 -0.015385381 -0.000000000 -0.000000000 -0.000000000 -0.000000000
done
Evaluating the coordinates              ...  done
Calculating the B-matrix                .... done
Calculating the G-matrix                .... done
Diagonalizing the G-matrix              .... done
Small eigenvalue found = 1.993e-02
The first mode is                       ....   31
The number of degrees of freedom        ....   42

    -----------------------------------------------------------------
                    Redundant Internal Coordinates


    -----------------------------------------------------------------
         Definition                    Initial Value    d2E/dq (diagonal element)
    -----------------------------------------------------------------
      1. B(C   1,C   0)                  1.3937         0.415149   
      2. B(C   2,C   0)                  2.3248         0.117827   
      3. B(C   2,C   1)                  1.3892         0.312834   
      4. B(C   3,C   2)                  1.3357         0.278159   
      5. B(C   4,C   2)                  2.2727         0.130412   
      6. B(C   4,C   3)                  1.4067         0.384985   
      7. B(C   5,C   4)                  1.4121         0.519161   
      8. B(C   5,C   0)                  1.4198         0.487609   
      9. B(C   5,C   2)                  2.6320         0.127535   
     10. B(H   6,C   0)                  1.0867         0.365678   
     11. B(H   7,C   1)                  1.0906         0.358366   
     12. B(H   8,C   4)                  1.0932         0.362178   
     13. B(N   9,C   3)                  2.4867         0.081410   
     14. B(N   9,C   1)                  2.5193         0.159521   
     15. B(N   9,C   2)                  1.6290         0.056091   
     16. B(N  10,C   2)                  2.7016         0.388419   
     17. B(N  10,N   9)                  1.1146         0.546439   
     18. B(O  11,C   5)                  1.3634         0.648423   
     19. B(C  12,O  11)                  1.4237         0.489046   
     20. B(H  13,C  12)                  1.0941         0.355324   
     21. B(H  14,C  12)                  1.1008         0.347006   
     22. B(H  15,C  12)                  1.1008         0.347008   
     23. A(C   1,C   0,C   5)          118.9973         0.082974   
     24. A(C   5,C   0,H   6)          121.5670         0.199605   
     25. A(C   1,C   0,H   6)          119.4356         0.199299   
     26. A(C   2,C   1,H   7)          124.1256         0.206750   
     27. A(C   0,C   1,C   2)          113.3136         0.126153   
     28. A(C   0,C   1,H   7)          122.5608         0.208281   
     29. A(C   3,C   2,N   9)          113.6499         0.102999   
     30. A(C   1,C   2,N   9)          112.9316         0.105536   
     31. A(C   1,C   2,C   3)          133.4185         0.107310   
     32. A(C   2,C   3,C   4)          111.9078         0.155554   
     33. A(C   5,C   4,H   8)          116.9305         0.195536   
     34. A(C   3,C   4,H   8)          122.0946         0.195292   
     35. A(C   3,C   4,C   5)          120.9748         0.084971   
     36. A(C   0,C   5,C   4)          121.3879         0.065522   
     37. A(C   4,C   5,O  11)          115.7103         0.244961   
     38. A(C   0,C   5,O  11)          122.9017         0.245875   
     39. A(C   2,N   9,N  10)          159.5594         0.427618   
     40. A(C   5,O  11,C  12)          119.2639         0.431523   
     41. A(H  14,C  12,H  15)          109.6639         0.155782   
     42. A(H  13,C  12,H  15)          109.3997         0.150190   
     43. A(O  11,C  12,H  15)          111.3077         0.248017   
     44. A(H  13,C  12,H  14)          109.3996         0.150189   
     45. A(O  11,C  12,H  14)          111.3079         0.248016   
     46. A(O  11,C  12,H  13)          105.6666         0.248404   
     47. D(H   7,C   1,C   0,C   5)    179.9992         0.011311   
     48. D(C   2,C   1,C   0,C   5)      0.0007         0.010519   
     49. D(H   7,C   1,C   0,H   6)     -0.0005         0.011569   
     50. D(C   2,C   1,C   0,H   6)   -179.9989         0.008895   
     51. D(N   9,C   2,C   1,C   0)    179.9999         0.028128   
     52. D(N   9,C   2,C   1,H   7)      0.0015         0.029071   
     53. D(C   3,C   2,C   1,H   7)    179.9999         0.008035   
     54. D(C   3,C   2,C   1,C   0)     -0.0017         0.007714   
     55. D(C   4,C   3,C   2,N   9)   -179.9999         0.041485   
     56. D(C   4,C   3,C   2,C   1)      0.0017         0.007376   
     57. D(H   8,C   4,C   3,C   2)    180.0000         0.012566   
     58. D(C   5,C   4,C   3,C   2)     -0.0008         0.008893   
     59. D(O  11,C   5,C   0,C   1)    179.9998         0.013156   
     60. D(C   4,C   5,C   0,H   6)    179.9995         0.008567   
     61. D(C   4,C   5,C   0,C   1)     -0.0001         0.010279   
     62. D(O  11,C   5,C   4,H   8)     -0.0005         0.010371   
     63. D(O  11,C   5,C   4,C   3)   -179.9998         0.008888   
     64. D(C   0,C   5,C   4,H   8)    179.9995         0.009464   
     65. D(C   0,C   5,C   4,C   3)      0.0002         0.008707   
     66. D(O  11,C   5,C   0,H   6)     -0.0005         0.010735   
     67. D(N  10,N   9,C   2,C   3)      0.0142         0.221199   
     68. D(N  10,N   9,C   2,C   1)   -179.9871         0.128474   
     69. D(C  12,O  11,C   5,C   4)    179.9992         0.017380   
     70. D(C  12,O  11,C   5,C   0)     -0.0007         0.018223   
     71. D(H  15,C  12,O  11,C   5)    -61.3323         0.057099   
     72. D(H  14,C  12,O  11,C   5)     61.3396         0.057099   
     73. D(H  13,C  12,O  11,C   5)   -179.9964         0.054362   
    -----------------------------------------------------------------

Number of atoms                         .... 16
Number of degrees of freedom            .... 73

         *************************************************************
         *                GEOMETRY OPTIMIZATION CYCLE   1            *
         *************************************************************


           ************************************************************
           *        Program running with 42 parallel MPI-processes    *
           *            working without local directories             *
           ************************************************************
------------------------------------------------------------------------------
                           ORCA GTO INTEGRAL CALCULATION
------------------------------------------------------------------------------

                         BASIS SET STATISTICS AND STARTUP INFO

 # of primitive gaussian shells          ...  292
 # of primitive gaussian functions       ...  496
 # of contracted shells                  ...  120
 # of contracted basis functions         ...  284
 Highest angular momentum                ...    2
 Maximum contraction depth               ...    8
 Integral package used                   ... LIBINT
[...]
One Electron Energy:        -1516.69902747 Eh          -41271.47874 eV
Two Electron Energy:          606.73665098 Eh           16510.14363 eV

Virial components:
Potential Energy   :         -907.07008792 Eh          -24682.63193 eV
Kinetic Energy     :          452.09341923 Eh           12302.08736 eV
Virial Ratio       :            2.00637755


DFT components:
N(Alpha)           :       34.999998275659 electrons
N(Beta)            :       34.999998275659 electrons
N(Total)           :       69.999996551318 electrons
E(X)               :      -47.440514984245 Eh       
E(C)               :       -3.066702877479 Eh       
E(XC)              :      -50.507217861725 Eh       
DFET-embed. en.    :        0.000000000000 Eh       

---------------
SCF CONVERGENCE
---------------

  Last Energy change         ...   -5.9067e-09  Tolerance :   1.0000e-08
  Last MAX-Density change    ...    1.3906e-02  Tolerance :   1.0000e-07
  Last RMS-Density change    ...    1.3142e-04  Tolerance :   5.0000e-09
  Last Orbital Gradient      ...    9.2939e-06  Tolerance :   1.0000e-05
  Last Orbital Rotation      ...    2.3098e-05  Tolerance :   1.0000e-05

             **** THE GBW FILE WAS UPDATED (4-CH3O-C6H3-N2-NEB-TS.gbw) ****
             **** DENSITY FILE WAS UPDATED (4-CH3O-C6H3-N2-NEB-TS.scfp.tmp) ****
             **** ENERGY FILE WAS UPDATED (4-CH3O-C6H3-N2-NEB-TS.en.tmp) ****
----------------
ORBITAL ENERGIES
----------------

  NO   OCC          E(Eh)            E(eV) 
   0   2.0000     -19.188621      -522.1489 
   1   2.0000     -14.506503      -394.7420 
   2   2.0000     -14.481665      -394.0661 
   3   2.0000     -10.260057      -279.1903 
   4   2.0000     -10.253789      -279.0198 
   5   2.0000     -10.249648      -278.9071 
   6   2.0000     -10.222114      -278.1579 
   7   2.0000     -10.204843      -277.6879 
   8   2.0000     -10.189826      -277.2793 
   9   2.0000     -10.158233      -276.4196 
  10   2.0000      -1.169438       -31.8220 
  11   2.0000      -1.079492       -29.3745 
  12   2.0000      -0.877142       -23.8683 
  13   2.0000      -0.785842       -21.3839 
  14   2.0000      -0.761510       -20.7217 
  15   2.0000      -0.719678       -19.5834 
  16   2.0000      -0.656473       -17.8635 
  17   2.0000      -0.620221       -16.8771 
  18   2.0000      -0.567621       -15.4458 
  19   2.0000      -0.537377       -14.6228 
  20   2.0000      -0.515957       -14.0399 
  21   2.0000      -0.514232       -13.9930 
  22   2.0000      -0.504771       -13.7355 
  23   2.0000      -0.481699       -13.1077 
  24   2.0000      -0.479034       -13.0352 
  25   2.0000      -0.457442       -12.4476 
  26   2.0000      -0.425939       -11.5904 
  27   2.0000      -0.415441       -11.3047 
  28   2.0000      -0.391386       -10.6501 
  29   2.0000      -0.387320       -10.5395 
  30   2.0000      -0.346283        -9.4228 
  31   2.0000      -0.341512        -9.2930 
  32   2.0000      -0.259920        -7.0728 
  33   2.0000      -0.239064        -6.5053 
  34   2.0000      -0.205650        -5.5960 
  35   0.0000      -0.096992        -2.6393 
  36   0.0000      -0.084652        -2.3035 
  37   0.0000      -0.022699        -0.6177 
  38   0.0000      -0.016673        -0.4537 
  39   0.0000      -0.003207        -0.0873 
  40   0.0000       0.011672         0.3176 
  41   0.0000       0.012203         0.3321 
  42   0.0000       0.021434         0.5833 
  43   0.0000       0.023410         0.6370 
  44   0.0000       0.030558         0.8315 
  45   0.0000       0.035814         0.9745 
  46   0.0000       0.046358         1.2615 
  47   0.0000       0.056253         1.5307 
  48   0.0000       0.056485         1.5370 
  49   0.0000       0.067475         1.8361 
  50   0.0000       0.073369         1.9965 
  51   0.0000       0.077581         2.1111 
  52   0.0000       0.088692         2.4134 
  53   0.0000       0.092318         2.5121 
  54   0.0000       0.095234         2.5915 
  55   0.0000       0.097084         2.6418 
  56   0.0000       0.104278         2.8376 
  57   0.0000       0.105223         2.8633 
  58   0.0000       0.111568         3.0359 
  59   0.0000       0.116674         3.1749 
  60   0.0000       0.119521         3.2523 
  61   0.0000       0.121750         3.3130 
  62   0.0000       0.127004         3.4560 
  63   0.0000       0.133219         3.6251 
  64   0.0000       0.133984         3.6459 
  65   0.0000       0.138483         3.7683 
  66   0.0000       0.140908         3.8343 
  67   0.0000       0.148379         4.0376 
  68   0.0000       0.150823         4.1041 
  69   0.0000       0.164181         4.4676 
  70   0.0000       0.165927         4.5151 
  71   0.0000       0.178999         4.8708 
  72   0.0000       0.190557         5.1853 
  73   0.0000       0.195297         5.3143 
  74   0.0000       0.201289         5.4774 
  75   0.0000       0.209141         5.6910 
  76   0.0000       0.214887         5.8474 
  77   0.0000       0.221282         6.0214 
  78   0.0000       0.227833         6.1996 
  79   0.0000       0.233900         6.3647 
  80   0.0000       0.236422         6.4334 
  81   0.0000       0.241970         6.5843 
  82   0.0000       0.251282         6.8377 
  83   0.0000       0.256025         6.9668 
  84   0.0000       0.256410         6.9773 
  85   0.0000       0.263046         7.1579 
  86   0.0000       0.272092         7.4040 
  87   0.0000       0.276753         7.5308 
  88   0.0000       0.282595         7.6898 
  89   0.0000       0.287270         7.8170 
  90   0.0000       0.292174         7.9504 
  91   0.0000       0.294365         8.0101 
  92   0.0000       0.305864         8.3230 
  93   0.0000       0.310445         8.4476 
  94   0.0000       0.316151         8.6029 
  95   0.0000       0.319846         8.7034 
  96   0.0000       0.332597         9.0504 
  97   0.0000       0.343018         9.3340 
  98   0.0000       0.347726         9.4621 
  99   0.0000       0.355598         9.6763 
 100   0.0000       0.372054        10.1241 
 101   0.0000       0.376062        10.2332 
 102   0.0000       0.382340        10.4040 
 103   0.0000       0.384961        10.4753 
 104   0.0000       0.398131        10.8337 
 105   0.0000       0.406740        11.0680 
 106   0.0000       0.421652        11.4737 
 107   0.0000       0.432136        11.7590 
 108   0.0000       0.436224        11.8703 
 109   0.0000       0.443534        12.0692 
 110   0.0000       0.453171        12.3314 
 111   0.0000       0.454174        12.3587 
 112   0.0000       0.463829        12.6214 
 113   0.0000       0.477893        13.0041 
 114   0.0000       0.486073        13.2267 
 115   0.0000       0.502676        13.6785 
 116   0.0000       0.509888        13.8748 
 117   0.0000       0.519100        14.1254 
 118   0.0000       0.525062        14.2877 
 119   0.0000       0.529949        14.4206 
 120   0.0000       0.534363        14.5408 
 121   0.0000       0.536330        14.5943 
 122   0.0000       0.546478        14.8704 
 123   0.0000       0.552283        15.0284 
 124   0.0000       0.565971        15.4008 
 125   0.0000       0.566493        15.4151 
 126   0.0000       0.580127        15.7861 
 127   0.0000       0.589857        16.0508 
 128   0.0000       0.593196        16.1417 
 129   0.0000       0.597038        16.2462 
 130   0.0000       0.603339        16.4177 
 131   0.0000       0.618668        16.8348 
 132   0.0000       0.621158        16.9026 
 133   0.0000       0.625721        17.0267 
 134   0.0000       0.636688        17.3252 
 135   0.0000       0.639673        17.4064 
 136   0.0000       0.646900        17.6031 
 137   0.0000       0.648994        17.6600 
 138   0.0000       0.662700        18.0330 
 139   0.0000       0.664748        18.0887 
 140   0.0000       0.671412        18.2701 
 141   0.0000       0.692060        18.8319 
 142   0.0000       0.697333        18.9754 
 143   0.0000       0.710915        19.3450 
 144   0.0000       0.714921        19.4540 
 145   0.0000       0.725519        19.7424 
 146   0.0000       0.727377        19.7929 
 147   0.0000       0.728614        19.8266 
 148   0.0000       0.733672        19.9642 
 149   0.0000       0.747082        20.3291 
 150   0.0000       0.752577        20.4787 
 151   0.0000       0.760093        20.6832 
 152   0.0000       0.769851        20.9487 
 153   0.0000       0.772624        21.0242 
 154   0.0000       0.785733        21.3809 
 155   0.0000       0.798053        21.7161 
 156   0.0000       0.803864        21.8743 
 157   0.0000       0.823036        22.3960 
 158   0.0000       0.824320        22.4309 
 159   0.0000       0.838014        22.8035 
 160   0.0000       0.844036        22.9674 
 161   0.0000       0.850344        23.1390 
 162   0.0000       0.861816        23.4512 
 163   0.0000       0.864190        23.5158 
 164   0.0000       0.874072        23.7847 
 165   0.0000       0.902899        24.5691 
 166   0.0000       0.924681        25.1619 
 167   0.0000       0.933140        25.3920 
 168   0.0000       0.952057        25.9068 
 169   0.0000       0.957812        26.0634 
 170   0.0000       0.974013        26.5042 
 171   0.0000       0.996126        27.1060 
 172   0.0000       1.022418        27.8214 
 173   0.0000       1.038748        28.2658 
 174   0.0000       1.041385        28.3375 
 175   0.0000       1.081480        29.4286 
 176   0.0000       1.101427        29.9713 
 177   0.0000       1.117780        30.4163 
 178   0.0000       1.147844        31.2344 
 179   0.0000       1.150223        31.2992 
 180   0.0000       1.156088        31.4588 
 181   0.0000       1.213722        33.0271 
 182   0.0000       1.216761        33.1097 
 183   0.0000       1.228099        33.4183 
 184   0.0000       1.247077        33.9347 
 185   0.0000       1.275655        34.7123 
 186   0.0000       1.278067        34.7780 
 187   0.0000       1.289005        35.0756 
 188   0.0000       1.306071        35.5400 
 189   0.0000       1.324348        36.0373 
 190   0.0000       1.339672        36.4543 
 191   0.0000       1.352089        36.7922 
 192   0.0000       1.377713        37.4895 
 193   0.0000       1.396157        37.9914 
 194   0.0000       1.410105        38.3709 
 195   0.0000       1.412003        38.4226 
 196   0.0000       1.428217        38.8638 
 197   0.0000       1.439240        39.1637 
 198   0.0000       1.449394        39.4400 
 199   0.0000       1.461833        39.7785 
 200   0.0000       1.482559        40.3425 
 201   0.0000       1.492678        40.6178 
 202   0.0000       1.494859        40.6772 
 203   0.0000       1.512564        41.1590 
 204   0.0000       1.528458        41.5915 
 205   0.0000       1.553034        42.2602 
 206   0.0000       1.568229        42.6737 
 207   0.0000       1.571633        42.7663 
 208   0.0000       1.580744        43.0142 
 209   0.0000       1.601720        43.5850 
 210   0.0000       1.621453        44.1220 
 211   0.0000       1.621557        44.1248 
 212   0.0000       1.644615        44.7522 
 213   0.0000       1.650811        44.9209 
 214   0.0000       1.678850        45.6838 
 215   0.0000       1.680485        45.7283 
 216   0.0000       1.687233        45.9119 
 217   0.0000       1.713603        46.6295 
 218   0.0000       1.718390        46.7598 
 219   0.0000       1.729943        47.0742 
 220   0.0000       1.755342        47.7653 
 221   0.0000       1.781660        48.4814 
 222   0.0000       1.811710        49.2991 
 223   0.0000       1.829100        49.7723 
 224   0.0000       1.863553        50.7099 
 225   0.0000       1.879628        51.1473 
 226   0.0000       1.883099        51.2417 
 227   0.0000       1.916009        52.1373 
 228   0.0000       1.928057        52.4651 
 229   0.0000       1.949862        53.0584 
 230   0.0000       1.953908        53.1685 
 231   0.0000       1.966330        53.5066 
 232   0.0000       1.977754        53.8174 
 233   0.0000       2.001432        54.4617 
 234   0.0000       2.004784        54.5529 
 235   0.0000       2.012460        54.7618 
 236   0.0000       2.023817        55.0709 
 237   0.0000       2.027735        55.1775 
 238   0.0000       2.051192        55.8158 
 239   0.0000       2.069958        56.3264 
 240   0.0000       2.079361        56.5823 
 241   0.0000       2.105329        57.2889 
 242   0.0000       2.114154        57.5291 
 243   0.0000       2.137036        58.1517 
 244   0.0000       2.169204        59.0270 
 245   0.0000       2.202786        59.9409 
 246   0.0000       2.235985        60.8442 
 247   0.0000       2.241097        60.9834 
 248   0.0000       2.250303        61.2339 
 249   0.0000       2.279703        62.0339 
 250   0.0000       2.308591        62.8200 
 251   0.0000       2.317491        63.0621 
 252   0.0000       2.353271        64.0358 
 253   0.0000       2.361471        64.2589 
 254   0.0000       2.373123        64.5760 
 255   0.0000       2.419966        65.8506 
 256   0.0000       2.428587        66.0852 
 257   0.0000       2.492462        67.8233 
 258   0.0000       2.507199        68.2243 
 259   0.0000       2.565637        69.8145 
 260   0.0000       2.587808        70.4178 
 261   0.0000       2.588861        70.4465 
 262   0.0000       2.606710        70.9322 
 263   0.0000       2.669204        72.6327 
 264   0.0000       2.692632        73.2702 
 265   0.0000       2.747716        74.7691 
 266   0.0000       2.778178        75.5981 
 267   0.0000       2.838524        77.2402 
 268   0.0000       2.840823        77.3027 
 269   0.0000       2.881421        78.4074 
 270   0.0000       2.921431        79.4962 
 271   0.0000       3.002318        81.6972 
 272   0.0000       3.058923        83.2375 
 273   0.0000       3.109519        84.6143 
 274   0.0000       3.131485        85.2120 
 275   0.0000       3.182480        86.5997 
 276   0.0000       3.380470        91.9873 
 277   0.0000       3.397200        92.4425 
 278   0.0000       3.401513        92.5599 
 279   0.0000       3.496747        95.1513 
 280   0.0000       3.500710        95.2592 
 281   0.0000       3.681581       100.1809 
 282   0.0000       3.775542       102.7377 
 283   0.0000       4.033416       109.7548 
-------
TIMINGS
-------

Total SCF time: 0 days 0 hours 0 min 21 sec 

Total time                  ....      21.770 sec
Sum of individual times     ....      21.137 sec  ( 97.1%)

Fock matrix formation       ....      11.311 sec  ( 52.0%)
  XC integration            ....       1.729 sec  ( 15.3% of F)
    Basis function eval.    ....       0.421 sec  ( 24.3% of XC)
    Density eval.           ....       0.450 sec  ( 26.0% of XC)
    XC-Functional eval.     ....       0.050 sec  (  2.9% of XC)
    XC-Potential eval.      ....       0.400 sec  ( 23.1% of XC)
Diagonalization             ....       0.034 sec  (  0.2%)
Density matrix formation    ....       0.055 sec  (  0.3%)
Population analysis         ....       0.000 sec  (  0.0%)
Initial guess               ....       0.056 sec  (  0.3%)
Orbital Transformation      ....       0.000 sec  (  0.0%)
Orbital Orthonormalization  ....       0.026 sec  (  0.1%)
DIIS solution               ....       0.009 sec  (  0.0%)
SOSCF solution              ....       0.156 sec  (  0.7%)
Grid generation             ....       9.515 sec  ( 43.7%)

-------------------------   --------------------
FINAL SINGLE POINT ENERGY      -454.976668693469
-------------------------   --------------------

                                *** OPTIMIZATION RUN DONE ***


                    ***********************HURRAY************************
                    ***        THE TS OPTIMIZATION HAS CONVERGED      ***
                    *****************************************************



---------------------------------------------------------------
                      PATH SUMMARY FOR NEB-TS             
---------------------------------------------------------------
All forces in Eh/Bohr. Global forces for TS.

Image     E(Eh)   dE(kcal/mol)  max(|Fp|)  RMS(Fp)
  0    -454.98371     0.00       0.00058   0.00024
  1    -454.98170     1.26       0.00157   0.00104
  2    -454.97666     4.42       0.00049   0.00032 <= CI
 TS    -454.97667     4.42       0.00047   0.00016 <= TS
  3    -454.98693    -2.02       0.00079   0.00046
  4    -454.99946    -9.88       0.00091   0.00052
  5    -455.00725   -14.77       0.00048   0.00037
  6    -455.01091   -17.07       0.00123   0.00069
  7    -455.01270   -18.19       0.00086   0.00047
  8    -455.01332   -18.58       0.00109   0.00045
  9    -455.01358   -18.74       0.00126   0.00047
 10    -455.01388   -18.94       0.00079   0.00034
 11    -455.01420   -19.14       0.00062   0.00022
 12    -455.01445   -19.29       0.00018   0.00009
 13    -455.01453   -19.34       0.00054   0.00024
----------
STATISTICS
----------

For the individual parts of the NEB, NEB-CI or NEB-TS run:

Number of iterations:
     NEB                               ... 79  94.0%
     TS optimization                   ... 5  6.0%
Number of SCF / gradient calculations:
     NEB                               ... 950  99.5%
     TS optimization                   ... 5  0.5%

----------
 TIMINGS
----------

For the individual parts of the NEB, NEB-CI or NEB-TS run:

Total                                  ...    58370.189 sec
NEB                                    ...    58003.839 sec  99.4%
TS Optimization                        ...      366.349 sec  0.6%


                            ***************************************
                            *     ORCA property calculations      *
                            ***************************************

                                    ---------------------
                                    Active property flags
                                    ---------------------
   (+) Dipole Moment


------------------------------------------------------------------------------
                       ORCA ELECTRIC PROPERTIES CALCULATION
------------------------------------------------------------------------------

Dipole Moment Calculation                       ... on
Quadrupole Moment Calculation                   ... off
Polarizability Calculation                      ... off
GBWName                                         ... 4-CH3O-C6H3-N2-NEB-TS.gbw
Electron density file                           ... 4-CH3O-C6H3-N2-NEB-TS.scfp.tmp
The origin for moment calculation is the CENTER OF MASS  = ( 1.344298,  0.569158 -0.358277)

-------------
DIPOLE MOMENT
-------------
                                X             Y             Z
Electronic contribution:     11.15674       3.11938      -3.12467
Nuclear contribution   :    -11.40763      -4.77999       3.04506
                        -----------------------------------------
Total Dipole Moment    :     -0.25089      -1.66060      -0.07960
                        -----------------------------------------
Magnitude (a.u.)       :      1.68133
Magnitude (Debye)      :      4.27361



--------------------
Rotational spectrum 
--------------------
 
Rotational constants in cm-1:     0.164638     0.023221     0.020431 
Rotational constants in MHz :  4935.708540   696.147315   612.512327 

 Dipole components along the rotational axes: 
x,y,z [a.u.] :     0.328793     1.648872    -0.000049 
x,y,z [Debye]:     0.835726     4.191099    -0.000123 

 

Timings for individual modules:

Sum of individual times         ...      556.151 sec (=   9.269 min)
GTO integral calculation        ...       21.217 sec (=   0.354 min)   3.8 %
SCF iterations                  ...      424.155 sec (=   7.069 min)  76.3 %
SCF Gradient evaluation         ...      109.745 sec (=   1.829 min)  19.7 %
Geometry relaxation             ...        1.034 sec (=   0.017 min)   0.2 %
                             ****ORCA TERMINATED NORMALLY****
TOTAL RUN TIME: 0 days 16 hours 13 minutes 48 seconds 424 msec
