
                                 *****************
                                 * O   R   C   A *
                                 *****************

           --- An Ab Initio, DFT and Semiempirical electronic structure package ---

                  #######################################################
                  #                        -***-                        #
                  #          Department of theory and spectroscopy      #
                  #               Directorship: Frank Neese             #
                  #        Max Planck Institute fuer Kohlenforschung    #
                  #                Kaiser Wilhelm Platz 1               #
                  #                 D-45470 Muelheim/Ruhr               #
                  #                      Germany                        #
                  #                                                     #
                  #                  All rights reserved                #
                  #                        -***-                        #
                  #######################################################


                         Program Version 4.1.0  - RELEASE  -


 With contributions from (in alphabetic order):
   Daniel Aravena         : Magnetic Properties
   Michael Atanasov       : Ab Initio Ligand Field Theory
   Alexander A. Auer      : GIAO ZORA
   Ute Becker             : Parallelization
   Giovanni Bistoni       : ED, Open-shell LED
   Martin Brehm           : Molecular dynamics
   Dmytro Bykov           : SCF Hessian
   Vijay G. Chilkuri      : MRCI spin determinant printing
   Dipayan Datta          : RHF DLPNO-CCSD density
   Achintya Kumar Dutta   : EOM-CC, STEOM-CC
   Dmitry Ganyushin       : Spin-Orbit,Spin-Spin,Magnetic field MRCI
   Miquel Garcia          : C-PCM Hessian
   Yang Guo               : DLPNO-NEVPT2, CIM, IAO-localization
   Andreas Hansen         : Spin unrestricted coupled pair/coupled cluster methods
   Benjamin Helmich-Paris : CASSCF linear response (MC-RPA)
   Lee Huntington         : MR-EOM, pCC
   Robert Izsak           : Overlap fitted RIJCOSX, COSX-SCS-MP3, EOM
   Christian Kollmar      : KDIIS, OOCD, Brueckner-CCSD(T), CCSD density
   Simone Kossmann        : Meta GGA functionals, TD-DFT gradient, OOMP2, MP2 Hessian
   Martin Krupicka        : AUTO-CI
   Lucas Lang             : DCDCAS
   Dagmar Lenk            : GEPOL surface, SMD
   Dimitrios Liakos       : Extrapolation schemes; parallel MDCI
   Dimitrios Manganas     : ROCIS; embedding schemes
   Dimitrios Pantazis     : SARC Basis sets
   Taras Petrenko         : DFT Hessian,TD-DFT gradient, ASA, ECA, R-Raman, ABS, FL, XAS/XES, NRVS
   Peter Pinski           : DLPNO-MP2, DLPNO-MP2 Gradient
   Christoph Reimann      : Effective Core Potentials
   Marius Retegan         : Local ZFS, SOC
   Christoph Riplinger    : Optimizer, TS searches, QM/MM, DLPNO-CCSD(T), (RO)-DLPNO pert. Triples
   Tobias Risthaus        : Range-separated hybrids, TD-DFT gradient, RPA, STAB
   Michael Roemelt        : Restricted open shell CIS
   Masaaki Saitow         : Open-shell DLPNO
   Barbara Sandhoefer     : DKH picture change effects
   Avijit Sen             : IP-ROCIS
   Kantharuban Sivalingam : CASSCF convergence, NEVPT2, FIC-MRCI
   Bernardo de Souza      : ESD, SOC TD-DFT
   Georgi Stoychev        : AutoAux, RI-MP2 NMR
   Willem Van den Heuvel  : Paramagnetic NMR
   Boris Wezisla          : Elementary symmetry handling
   Frank Wennmohs         : Technical directorship


 We gratefully acknowledge several colleagues who have allowed us to
 interface, adapt or use parts of their codes:
   Stefan Grimme, W. Hujo, H. Kruse,             : VdW corrections, initial TS optimization,
                  C. Bannwarth                     DFT functionals, gCP, sTDA/sTD-DF
   Ed Valeev                                     : LibInt (2-el integral package), F12 methods
   Garnet Chan, S. Sharma, J. Yang, R. Olivares  : DMRG
   Ulf Ekstrom                                   : XCFun DFT Library
   Mihaly Kallay                                 : mrcc  (arbitrary order and MRCC methods)
   Andreas Klamt, Michael Diedenhofen            : otool_cosmo (COSMO solvation model)
   Jiri Pittner, Ondrej Demel                    : Mk-CCSD
   Frank Weinhold                                : gennbo (NPA and NBO analysis)
   Christopher J. Cramer and Donald G. Truhlar   : smd solvation model
   Lars Goerigk                                  : TD-DFT with DH, B97 family of functionals
   V. Asgeirsson, H. Jonsson                     : NEB implementation
   FAccTs GmbH                                   : IRC, NEB, NEB-TS, Multilevel


 Your calculation uses the libint2 library for the computation of 2-el integrals
 For citations please refer to: http://libint.valeyev.net

 This ORCA versions uses:
   CBLAS   interface :  Fast vector & matrix operations
   LAPACKE interface :  Fast linear algebra routines
   SCALAPACK package :  Parallel linear algebra routines




***************************************
The coordinates will be read from file: 4-HOOC-C6H3-N2-source.xyz
***************************************


Your calculation utilizes a Nudged-Elastic-Band implementation
 by V.Asgeirsson, C. Riplinger & H. Jonsson
Please cite in your paper:
 V. Asgeirsson et al., in prep. (2019)
   

----- Orbital basis set information -----
Your calculation utilizes the basis: aug-cc-pVDZ 
    H, B-Ne : Obtained from the ccRepo (grant-hill.group.shef.ac.uk/ccrepo) Feb. 2017
              R. A. Kendall, T. H. Dunning, Jr., R. J. Harrison, J. Chem. Phys. 96, 6796 (1992)
         He : Obtained from the ccRepo (grant-hill.group.shef.ac.uk/ccrepo) Feb. 2017
              D. E. Woon, T. H. Dunning, Jr., J. Chem. Phys. 100, 2975 (1994)
  Li-Be, Na : Obtained from the ccRepo (grant-hill.group.shef.ac.uk/ccrepo) Feb. 2017
              B. P. Prascher, D. E. Woon, K. A. Peterson, T. H. Dunning, Jr., A. K. Wilson, Theor. Chem. Acc. 128, 69 (2011)
         Mg : Obtained from the Peterson Research Group Website (tyr0.chem.wsu.edu/~kipeters) Feb. 2017
              B. P. Prascher, D. E. Woon, K. A. Peterson, T. H. Dunning, Jr., A. K. Wilson, Theor. Chem. Acc. 128, 69 (2011)
      Al-Ar : Obtained from the ccRepo (grant-hill.group.shef.ac.uk/ccrepo) Feb. 2017
              D. E. Woon, T. H. Dunning, Jr., J. Chem. Phys. 98, 1358 (1993)
      Sc-Zn : Obtained from the ccRepo (grant-hill.group.shef.ac.uk/ccrepo) Feb. 2017
              N. B. Balabanov, K. A. Peterson, J. Chem. Phys. 123, 064107 (2005)
              N. B. Balabanov, K. A. Peterson, J. Chem. Phys. 125, 074110 (2006)
      Ga-Kr : Obtained from the ccRepo (grant-hill.group.shef.ac.uk/ccrepo) Feb. 2017
              A. K. Wilson, D. E. Woon, K. A. Peterson, T. H. Dunning, Jr., J. Chem. Phys. 110, 7667 (1999)

================================================================================
                                        WARNINGS
                       Please study these warnings very carefully!
================================================================================


WARNING: Geometry Optimization
  ===> : Switching off AutoStart
         For restart on a previous wavefunction, please use MOREAD

INFO   : the flag for use of LIBINT has been found!

================================================================================
                                       INPUT FILE
================================================================================
NAME = 4-HOOC-C6H3-N2-NEB-TS.orc
|  1> ! B3LYP/G aug-cc-pVDZ TightSCF Grid7 NEB-TS
|  2> %scf MaxIter 1000 end
|  3> %geom MaxIter 1000 TolE 1e-8 TolRMSG 5e-7 TolMaxG 1e-6 Convergence tight end
|  4> %neb
|  5>   Nimages 12
|  6>   neb_end_xyzfile "4-HOOC-C6H3-N2-final.xyz"
|  7> end
|  8> * xyzfile 0 1 4-HOOC-C6H3-N2-source.xyz
|  9> %pal nprocs 42 end
| 10> 
| 11>                          ****END OF INPUT****
================================================================================

Running a Single Point calculation on the reactant structure before starting the actual NEB.

---------------------------------
CARTESIAN COORDINATES (ANGSTROEM)
---------------------------------
  C     -1.414398   -1.476425   -1.060842
  C      0.003295   -1.302556   -1.116706
  C      0.312070    0.046271   -0.890987
  C     -0.523766    1.168180   -0.635879
  C     -1.873772    0.897574   -0.601781
  C     -2.318041   -0.437837   -0.816684
  H     -1.835643   -2.471764   -1.215435
  H     -0.129162    2.172416   -0.477982
  H     -2.592644    1.690524   -0.413575
  N      1.692311    0.290918   -0.931713
  N      2.800081    0.420235   -0.976550
  C     -3.780344   -0.761361   -0.785147
  O     -4.253854   -1.863353   -0.956974
  O     -4.560247    0.328254   -0.540728
  H     -5.478287    0.012814   -0.542208

----------------------------
CARTESIAN COORDINATES (A.U.)
----------------------------
  NO LB      ZA    FRAG     MASS         X           Y           Z
   0 C     6.0000    0    12.011   -2.672825   -2.790039   -2.004701
   1 C     6.0000    0    12.011    0.006227   -2.461474   -2.110268
   2 C     6.0000    0    12.011    0.589728    0.087439   -1.683721
   3 C     6.0000    0    12.011   -0.989775    2.207541   -1.201637
   4 C     6.0000    0    12.011   -3.540916    1.696169   -1.137201
   5 C     6.0000    0    12.011   -4.380462   -0.827392   -1.543310
   6 H     1.0000    0     1.008   -3.468863   -4.670956   -2.296840
   7 H     1.0000    0     1.008   -0.244081    4.105271   -0.903255
   8 H     1.0000    0     1.008   -4.899387    3.194628   -0.781543
   9 N     7.0000    0    14.007    3.198004    0.549755   -1.760682
  10 N     7.0000    0    14.007    5.291387    0.794128   -1.845411
  11 C     6.0000    0    12.011   -7.143815   -1.438763   -1.483714
  12 O     8.0000    0    15.999   -8.038619   -3.521227   -1.808419
  13 O     8.0000    0    15.999   -8.617617    0.620311   -1.021827
  14 H     1.0000    0     1.008  -10.352462    0.024215   -1.024624

--------------------------------
INTERNAL COORDINATES (ANGSTROEM)
--------------------------------
 C      0   0   0     0.000000000000     0.00000000     0.00000000
 C      1   0   0     1.429407027731     0.00000000     0.00000000
 C      2   1   0     1.402007404732   109.21807404     0.00000000
 C      3   2   1     1.422105605957   131.17943802     0.00000000
 C      4   3   2     1.377281815626   115.18508875     0.00000000
 C      1   2   3     1.398158837416   123.88183298     0.00000000
 H      1   2   3     1.091808482622   119.21037178   180.00276647
 H      4   3   2     1.090473774064   122.67055309   180.00011205
 H      5   4   3     1.086723802747   120.61895688   179.99980872
 N      3   2   1     1.402346198972   112.32929580   180.00062816
 N     10   3   2     1.116193743451   176.54962805     0.00000000
 C      6   1   2     1.497996774055   118.30446539   180.00323343
 O     12   6   1     1.211661290963   125.09402407   359.93538754
 O     12   6   1     1.362075698506   112.95132407   180.06099376
 H     14  12   6     0.970722784661   106.33677229   179.93818648

---------------------------
INTERNAL COORDINATES (A.U.)
---------------------------
 C      0   0   0     0.000000000000     0.00000000     0.00000000
 C      1   0   0     2.701187816314     0.00000000     0.00000000
 C      2   1   0     2.649410032672   109.21807404     0.00000000
 C      3   2   1     2.687390128773   131.17943802     0.00000000
 C      4   3   2     2.602685440762   115.18508875     0.00000000
 C      1   2   3     2.642137294438   123.88183298     0.00000000
 H      1   2   3     2.063219022847   119.21037178   180.00276647
 H      4   3   2     2.060696789205   122.67055309   180.00011205
 H      5   4   3     2.053610370406   120.61895688   179.99980872
 N      3   2   1     2.650050261003   112.32929580   180.00062816
 N     10   3   2     2.109300487519   176.54962805     0.00000000
 C      6   1   2     2.830803652461   118.30446539   180.00323343
 O     12   6   1     2.289708006993   125.09402407   359.93538754
 O     12   6   1     2.573950043846   112.95132407   180.06099376
 H     14  12   6     1.834400214967   106.33677229   179.93818648

---------------------
BASIS SET INFORMATION
---------------------
There are 4 groups of distinct atoms

 Group   1 Type C   : 18s5p2d contracted to 4s3p2d pattern {8811/311/11}
 Group   2 Type H   : 5s2p contracted to 3s2p pattern {311/11}
 Group   3 Type N   : 18s5p2d contracted to 4s3p2d pattern {8811/311/11}
 Group   4 Type O   : 18s5p2d contracted to 4s3p2d pattern {8811/311/11}

Atom   0C    basis set group =>   1
Atom   1C    basis set group =>   1
Atom   2C    basis set group =>   1
Atom   3C    basis set group =>   1
Atom   4C    basis set group =>   1
Atom   5C    basis set group =>   1
Atom   6H    basis set group =>   2
Atom   7H    basis set group =>   2
Atom   8H    basis set group =>   2
Atom   9N    basis set group =>   3
Atom  10N    basis set group =>   3
Atom  11C    basis set group =>   1
Atom  12O    basis set group =>   4
Atom  13O    basis set group =>   4
Atom  14H    basis set group =>   2


           ************************************************************
           *        Program running with 42 parallel MPI-processes    *
           *            working without local directories             *
           ************************************************************
------------------------------------------------------------------------------
                           ORCA GTO INTEGRAL CALCULATION
------------------------------------------------------------------------------

                         BASIS SET STATISTICS AND STARTUP INFO

 # of primitive gaussian shells          ...  303
 # of primitive gaussian functions       ...  517
 # of contracted shells                  ...  119
 # of contracted basis functions         ...  289
 Highest angular momentum                ...    2
 Maximum contraction depth               ...    8
 Integral package used                   ... LIBINT
 Integral threshhold            Thresh   ...  2.500e-11
 Primitive cut-off              TCut     ...  2.500e-12


------------------------------ INTEGRAL EVALUATION ----------------------------


 * One electron integrals 
 Pre-screening matrix                    ... done
 Shell pair data                         ... done (   0.004 sec)



           ************************************************************
           *        Program running with 42 parallel MPI-processes    *
           *            working without local directories             *
           ************************************************************
-------------------------------------------------------------------------------
                                 ORCA SCF
-------------------------------------------------------------------------------

------------
SCF SETTINGS
------------
Hamiltonian:
 Density Functional     Method          .... DFT(GTOs)
 Exchange Functional    Exchange        .... B88
   X-Alpha parameter    XAlpha          ....  0.666667
   Becke's b parameter  XBeta           ....  0.004200
 Correlation Functional Correlation     .... LYP
 LDA part of GGA corr.  LDAOpt          .... VWN-3
 Gradients option       PostSCFGGA      .... off
 Hybrid DFT is turned on
   Fraction HF Exchange ScalHFX         ....  0.200000
   Scaling of DF-GGA-X  ScalDFX         ....  0.720000
   Scaling of DF-GGA-C  ScalDFC         ....  0.810000
   Scaling of DF-LDA-C  ScalLDAC        ....  1.000000
   Perturbative correction              ....  0.000000
   Density functional embedding theory  .... OFF
   NL short-range parameter             ....  4.800000


General Settings:
 Integral files         IntName         .... 4-HOOC-C6H3-N2-NEB-TS
 Hartree-Fock type      HFTyp           .... RHF
 Total Charge           Charge          ....    0
 Multiplicity           Mult            ....    1
 Number of Electrons    NEL             ....   76
 Basis Dimension        Dim             ....  289
 Nuclear Repulsion      ENuc            ....    523.1102530083 Eh

Convergence Acceleration:
 DIIS                   CNVDIIS         .... on
   Start iteration      DIISMaxIt       ....    12
   Startup error        DIISStart       ....  0.200000
   # of expansion vecs  DIISMaxEq       ....     5
   Bias factor          DIISBfac        ....   1.050
   Max. coefficient     DIISMaxC        ....  10.000
 Newton-Raphson         CNVNR           .... off
 SOSCF                  CNVSOSCF        .... on
   Start iteration      SOSCFMaxIt      ....   150
   Startup grad/error   SOSCFStart      ....  0.003300
 Level Shifting         CNVShift        .... on
   Level shift para.    LevelShift      ....    0.2500
   Turn off err/grad.   ShiftErr        ....    0.0010
 Zerner damping         CNVZerner       .... off
 Static damping         CNVDamp         .... on
   Fraction old density DampFac         ....    0.7000
   Max. Damping (<1)    DampMax         ....    0.9800
   Min. Damping (>=0)   DampMin         ....    0.0000
   Turn off err/grad.   DampErr         ....    0.1000
 Fernandez-Rico         CNVRico         .... off

SCF Procedure:
 Maximum # iterations   MaxIter         ....  1000
 SCF integral mode      SCFMode         .... Direct
   Integral package                     .... LIBINT
 Reset frequency        DirectResetFreq ....    20
 Integral Threshold     Thresh          ....  2.500e-11 Eh
 Primitive CutOff       TCut            ....  2.500e-12 Eh

Convergence Tolerance:
 Convergence Check Mode ConvCheckMode   .... Total+1el-Energy
 Convergence forced     ConvForced      .... 0
 Energy Change          TolE            ....  1.000e-08 Eh
 1-El. energy change                    ....  1.000e-05 Eh
 Orbital Gradient       TolG            ....  1.000e-05
 Orbital Rotation angle TolX            ....  1.000e-05
 DIIS Error             TolErr          ....  5.000e-07


Diagonalization of the overlap matrix:
Smallest eigenvalue                        ... 3.711e-06
Time for diagonalization                   ...    0.022 sec
Threshold for overlap eigenvalues          ... 1.000e-08
Number of eigenvalues below threshold      ... 0
Time for construction of square roots      ...    0.021 sec
Total time needed                          ...    0.044 sec

-------------------
DFT GRID GENERATION
-------------------

General Integration Accuracy     IntAcc      ...  5.670
Radial Grid Type                 RadialGrid  ... Gauss-Chebyshev
Angular Grid (max. acc.)         AngularGrid ... Lebedev-770
Angular grid pruning method      GridPruning ... 3 (G Style)
Weight generation scheme         WeightScheme... Becke
Basis function cutoff            BFCut       ...    1.0000e-11
Integration weight cutoff        WCut        ...    1.0000e-14
Grids for H and He will be reduced by one unit

# of grid points (after initial pruning)     ... 346670 (   0.0 sec)
# of grid points (after weights+screening)   ... 318354 (   0.3 sec)
nearest neighbour list constructed           ...    0.0 sec
Grid point re-assignment to atoms done       ...    0.1 sec
Grid point division into batches done        ...    6.8 sec
Reduced shell lists constructed in    7.0 sec

Total number of grid points                  ...   318354
Total number of batches                      ...     4983
Average number of points per batch           ...       63
Average number of grid points per atom       ...    21224
Average number of shells per batch           ...    96.65 (81.22%)
Average number of basis functions per batch  ...   234.83 (81.26%)
Average number of large shells per batch     ...    82.17 (85.01%)
Average number of large basis fcns per batch ...   203.02 (86.45%)
Maximum spatial batch extension              ...   3.47,  4.75, 13.19 au
Average spatial batch extension              ...   0.03,  0.03,  0.03 au

Time for grid setup =    9.505 sec

------------------------------
INITIAL GUESS: MODEL POTENTIAL
------------------------------
Loading Hartree-Fock densities                     ... done
Calculating cut-offs                               ... done
Setting up the integral package                    ... done
Initializing the effective Hamiltonian             ... done
Starting the Coulomb interaction                   ... done (   0.0 sec)
Reading the grid                                   ... done
Mapping shells                                     ... done
Starting the XC term evaluation                    ... done (   0.3 sec)
  promolecular density results
     # of electrons  =     75.998045094
     EX              =    -66.624437955
     EC              =     -2.635872796
     EX+EC           =    -69.260310750
Transforming the Hamiltonian                       ... done (   0.0 sec)
Diagonalizing the Hamiltonian                      ... done (   0.0 sec)
Back transforming the eigenvectors                 ... done (   0.0 sec)
Now organizing SCF variables                       ... done
                      ------------------
                      INITIAL GUESS DONE (  10.1 sec)
                      ------------------
--------------
SCF ITERATIONS
--------------
ITER       Energy         Delta-E        Max-DP      RMS-DP      [F,P]     Damp
               ***  Starting incremental Fock matrix formation  ***
  0   -528.7320200719   0.000000000000 1.00651077  0.01700073  0.2665585 0.7000
  1   -528.8885614711  -0.156541399254 0.69061981  0.01210007  0.1002726 0.7000
                               ***Turning on DIIS***
  2   -528.9394920596  -0.050930588499 1.30275070  0.02492075  0.0330427 0.0000
  3   -529.0190283438  -0.079536284223 0.21891881  0.00441590  0.0523228 0.0000
  4   -529.0442276035  -0.025199259663 0.08322132  0.00173845  0.0161452 0.0000
  5   -529.0461464424  -0.001918838863 0.01804594  0.00047834  0.0091336 0.0000
                      *** Initiating the SOSCF procedure ***
                           *** Shutting down DIIS ***
                      *** Re-Reading the Fockian *** 
                      *** Removing any level shift *** 
ITER      Energy       Delta-E        Grad      Rot      Max-DP    RMS-DP
  6   -529.04642610  -0.0002796539  0.001761  0.001761  0.014004  0.000243
               *** Restarting incremental Fock matrix formation ***
  7   -529.04648719  -0.0000610947  0.001301  0.012703  0.033757  0.000418
  8   -529.04653090  -0.0000437114  0.000902  0.012090  0.027491  0.000308
  9   -529.04653588  -0.0000049825  0.000710  0.005002  0.023939  0.000268
 10   -529.04654897  -0.0000130838  0.000418  0.002819  0.044155  0.000337
 11   -529.04654498   0.0000039844  0.000533  0.002436  0.006741  0.000126
 12   -529.04655110  -0.0000061139  0.000053  0.000362  0.026558  0.000255
 13   -529.04655081   0.0000002892  0.000115  0.000290  0.012597  0.000112
 14   -529.04655129  -0.0000004823  0.000022  0.000084  0.014210  0.000138
 15   -529.04655125   0.0000000428  0.000039  0.000059  0.005849  0.000066
 16   -529.04655131  -0.0000000589  0.000003  0.000013  0.013509  0.000166
 17   -529.04655131   0.0000000016  0.000004  0.000010  0.022438  0.000236
                  ***Gradient check signals convergence***
              ***Rediagonalizing the Fockian in SOSCF/NRSCF***

               *****************************************************
               *                     SUCCESS                       *
               *           SCF CONVERGED AFTER  18 CYCLES          *
               *****************************************************


----------------
TOTAL SCF ENERGY
----------------

Total Energy       :         -529.04655130 Eh          -14396.08854 eV

Components:
Nuclear Repulsion  :          523.11025301 Eh           14234.55366 eV
Electronic Energy  :        -1052.15680431 Eh          -28630.64220 eV
One Electron Energy:        -1754.05864818 Eh          -47730.36238 eV
Two Electron Energy:          701.90184387 Eh           19099.72018 eV

Virial components:
Potential Energy   :        -1054.87444204 Eh          -28704.59288 eV
Kinetic Energy     :          525.82789073 Eh           14308.50434 eV
Virial Ratio       :            2.00612113


DFT components:
N(Alpha)           :       38.000000614756 electrons
N(Beta)            :       38.000000614756 electrons
N(Total)           :       76.000001229512 electrons
E(X)               :      -53.470543428835 Eh       
E(C)               :       -3.383449746339 Eh       
E(XC)              :      -56.853993175174 Eh       
DFET-embed. en.    :        0.000000000000 Eh       

---------------
SCF CONVERGENCE
---------------

  Last Energy change         ...    4.4070e-09  Tolerance :   1.0000e-08
  Last MAX-Density change    ...    1.0190e-02  Tolerance :   1.0000e-07
  Last RMS-Density change    ...    1.0032e-04  Tolerance :   5.0000e-09
  Last Orbital Gradient      ...    2.2739e-06  Tolerance :   1.0000e-05
  Last Orbital Rotation      ...    5.5625e-06  Tolerance :   1.0000e-05

             **** THE GBW FILE WAS UPDATED (4-HOOC-C6H3-N2-NEB-TS.gbw) ****
             **** DENSITY FILE WAS UPDATED (4-HOOC-C6H3-N2-NEB-TS.scfp.tmp) ****
             **** ENERGY FILE WAS UPDATED (4-HOOC-C6H3-N2-NEB-TS.en.tmp) ****
----------------
ORBITAL ENERGIES
----------------

  NO   OCC          E(Eh)            E(eV) 
   0   2.0000     -19.210220      -522.7367 
   1   2.0000     -19.152883      -521.1764 
   2   2.0000     -14.550291      -395.9335 
   3   2.0000     -14.508180      -394.7876 
   4   2.0000     -10.335967      -281.2560 
   5   2.0000     -10.281452      -279.7725 
   6   2.0000     -10.236848      -278.5588 
   7   2.0000     -10.231957      -278.4257 
   8   2.0000     -10.222006      -278.1549 
   9   2.0000     -10.205591      -277.7083 
  10   2.0000     -10.174448      -276.8608 
  11   2.0000      -1.203351       -32.7448 
  12   2.0000      -1.125324       -30.6216 
  13   2.0000      -1.035722       -28.1834 
  14   2.0000      -0.919494       -25.0207 
  15   2.0000      -0.849607       -23.1190 
  16   2.0000      -0.773623       -21.0513 
  17   2.0000      -0.734086       -19.9755 
  18   2.0000      -0.642335       -17.4788 
  19   2.0000      -0.640409       -17.4264 
  20   2.0000      -0.576340       -15.6830 
  21   2.0000      -0.555107       -15.1052 
  22   2.0000      -0.552402       -15.0316 
  23   2.0000      -0.534822       -14.5533 
  24   2.0000      -0.519342       -14.1320 
  25   2.0000      -0.501956       -13.6589 
  26   2.0000      -0.467905       -12.7324 
  27   2.0000      -0.467378       -12.7180 
  28   2.0000      -0.460108       -12.5202 
  29   2.0000      -0.423777       -11.5315 
  30   2.0000      -0.421329       -11.4649 
  31   2.0000      -0.391870       -10.6633 
  32   2.0000      -0.371949       -10.1213 
  33   2.0000      -0.342042        -9.3074 
  34   2.0000      -0.298722        -8.1286 
  35   2.0000      -0.295879        -8.0513 
  36   2.0000      -0.271890        -7.3985 
  37   2.0000      -0.206454        -5.6179 
  38   0.0000      -0.126012        -3.4290 
  39   0.0000      -0.105771        -2.8782 
  40   0.0000      -0.045145        -1.2285 
  41   0.0000      -0.031029        -0.8443 
  42   0.0000      -0.021441        -0.5834 
  43   0.0000      -0.010372        -0.2822 
  44   0.0000       0.012424         0.3381 
  45   0.0000       0.020958         0.5703 
  46   0.0000       0.030942         0.8420 
  47   0.0000       0.035234         0.9588 
  48   0.0000       0.042765         1.1637 
  49   0.0000       0.044073         1.1993 
  50   0.0000       0.056700         1.5429 
  51   0.0000       0.057365         1.5610 
  52   0.0000       0.065848         1.7918 
  53   0.0000       0.073046         1.9877 
  54   0.0000       0.078272         2.1299 
  55   0.0000       0.078646         2.1401 
  56   0.0000       0.087120         2.3707 
  57   0.0000       0.087704         2.3866 
  58   0.0000       0.102510         2.7894 
  59   0.0000       0.102521         2.7897 
  60   0.0000       0.113601         3.0912 
  61   0.0000       0.115945         3.1550 
  62   0.0000       0.118914         3.2358 
  63   0.0000       0.122754         3.3403 
  64   0.0000       0.126452         3.4409 
  65   0.0000       0.134734         3.6663 
  66   0.0000       0.134786         3.6677 
  67   0.0000       0.136947         3.7265 
  68   0.0000       0.158403         4.3104 
  69   0.0000       0.164266         4.4699 
  70   0.0000       0.165974         4.5164 
  71   0.0000       0.169290         4.6066 
  72   0.0000       0.174446         4.7469 
  73   0.0000       0.179629         4.8880 
  74   0.0000       0.188780         5.1370 
  75   0.0000       0.189912         5.1678 
  76   0.0000       0.192662         5.2426 
  77   0.0000       0.202294         5.5047 
  78   0.0000       0.204253         5.5580 
  79   0.0000       0.212424         5.7803 
  80   0.0000       0.222140         6.0447 
  81   0.0000       0.225004         6.1227 
  82   0.0000       0.228486         6.2174 
  83   0.0000       0.235395         6.4054 
  84   0.0000       0.239170         6.5081 
  85   0.0000       0.239768         6.5244 
  86   0.0000       0.242379         6.5955 
  87   0.0000       0.256388         6.9767 
  88   0.0000       0.264512         7.1977 
  89   0.0000       0.271602         7.3907 
  90   0.0000       0.273168         7.4333 
  91   0.0000       0.280562         7.6345 
  92   0.0000       0.287627         7.8267 
  93   0.0000       0.292410         7.9569 
  94   0.0000       0.297305         8.0901 
  95   0.0000       0.305376         8.3097 
  96   0.0000       0.312734         8.5099 
  97   0.0000       0.318848         8.6763 
  98   0.0000       0.326760         8.8916 
  99   0.0000       0.327469         8.9109 
 100   0.0000       0.334810         9.1106 
 101   0.0000       0.341178         9.2839 
 102   0.0000       0.361524         9.8376 
 103   0.0000       0.370392        10.0789 
 104   0.0000       0.370584        10.0841 
 105   0.0000       0.377376        10.2689 
 106   0.0000       0.381711        10.3869 
 107   0.0000       0.386882        10.5276 
 108   0.0000       0.402313        10.9475 
 109   0.0000       0.422535        11.4978 
 110   0.0000       0.437862        11.9148 
 111   0.0000       0.448130        12.1942 
 112   0.0000       0.451559        12.2875 
 113   0.0000       0.463497        12.6124 
 114   0.0000       0.466499        12.6941 
 115   0.0000       0.480153        13.0656 
 116   0.0000       0.496169        13.5014 
 117   0.0000       0.497256        13.5310 
 118   0.0000       0.514453        13.9990 
 119   0.0000       0.514568        14.0021 
 120   0.0000       0.527087        14.3428 
 121   0.0000       0.534097        14.5335 
 122   0.0000       0.538140        14.6435 
 123   0.0000       0.539322        14.6757 
 124   0.0000       0.549981        14.9657 
 125   0.0000       0.550223        14.9723 
 126   0.0000       0.566052        15.4031 
 127   0.0000       0.566314        15.4102 
 128   0.0000       0.567472        15.4417 
 129   0.0000       0.575748        15.6669 
 130   0.0000       0.585212        15.9244 
 131   0.0000       0.610126        16.6024 
 132   0.0000       0.619438        16.8558 
 133   0.0000       0.620736        16.8911 
 134   0.0000       0.621210        16.9040 
 135   0.0000       0.630654        17.1610 
 136   0.0000       0.631192        17.1756 
 137   0.0000       0.650028        17.6882 
 138   0.0000       0.662166        18.0185 
 139   0.0000       0.681381        18.5413 
 140   0.0000       0.689478        18.7617 
 141   0.0000       0.690875        18.7997 
 142   0.0000       0.704414        19.1681 
 143   0.0000       0.705946        19.2098 
 144   0.0000       0.713314        19.4103 
 145   0.0000       0.717050        19.5119 
 146   0.0000       0.719461        19.5775 
 147   0.0000       0.727307        19.7910 
 148   0.0000       0.729694        19.8560 
 149   0.0000       0.740928        20.1617 
 150   0.0000       0.749111        20.3843 
 151   0.0000       0.750693        20.4274 
 152   0.0000       0.768701        20.9174 
 153   0.0000       0.779867        21.2213 
 154   0.0000       0.792625        21.5684 
 155   0.0000       0.807307        21.9679 
 156   0.0000       0.814044        22.1513 
 157   0.0000       0.815180        22.1822 
 158   0.0000       0.830531        22.5999 
 159   0.0000       0.852498        23.1977 
 160   0.0000       0.858536        23.3620 
 161   0.0000       0.864172        23.5153 
 162   0.0000       0.871007        23.7013 
 163   0.0000       0.880446        23.9581 
 164   0.0000       0.883704        24.0468 
 165   0.0000       0.903041        24.5730 
 166   0.0000       0.913183        24.8490 
 167   0.0000       0.939477        25.5645 
 168   0.0000       0.957562        26.0566 
 169   0.0000       0.977170        26.5901 
 170   0.0000       0.985349        26.8127 
 171   0.0000       0.992155        26.9979 
 172   0.0000       1.012404        27.5489 
 173   0.0000       1.017929        27.6992 
 174   0.0000       1.054247        28.6875 
 175   0.0000       1.066331        29.0163 
 176   0.0000       1.069589        29.1050 
 177   0.0000       1.102625        30.0039 
 178   0.0000       1.106610        30.1124 
 179   0.0000       1.132262        30.8104 
 180   0.0000       1.144898        31.1543 
 181   0.0000       1.148981        31.2654 
 182   0.0000       1.154133        31.4055 
 183   0.0000       1.182598        32.1801 
 184   0.0000       1.185346        32.2549 
 185   0.0000       1.209139        32.9024 
 186   0.0000       1.241909        33.7941 
 187   0.0000       1.251650        34.0591 
 188   0.0000       1.263519        34.3821 
 189   0.0000       1.277153        34.7531 
 190   0.0000       1.283976        34.9388 
 191   0.0000       1.312521        35.7155 
 192   0.0000       1.317470        35.8502 
 193   0.0000       1.345729        36.6191 
 194   0.0000       1.365987        37.1704 
 195   0.0000       1.376991        37.4698 
 196   0.0000       1.389971        37.8230 
 197   0.0000       1.393614        37.9222 
 198   0.0000       1.422353        38.7042 
 199   0.0000       1.440477        39.1974 
 200   0.0000       1.444444        39.3053 
 201   0.0000       1.448311        39.4105 
 202   0.0000       1.470677        40.0192 
 203   0.0000       1.496875        40.7320 
 204   0.0000       1.498973        40.7891 
 205   0.0000       1.516199        41.2579 
 206   0.0000       1.521511        41.4024 
 207   0.0000       1.529756        41.6268 
 208   0.0000       1.546616        42.0856 
 209   0.0000       1.555215        42.3195 
 210   0.0000       1.560436        42.4616 
 211   0.0000       1.585369        43.1401 
 212   0.0000       1.606149        43.7055 
 213   0.0000       1.607199        43.7341 
 214   0.0000       1.620622        44.0994 
 215   0.0000       1.660052        45.1723 
 216   0.0000       1.674069        45.5537 
 217   0.0000       1.677225        45.6396 
 218   0.0000       1.684670        45.8422 
 219   0.0000       1.702652        46.3315 
 220   0.0000       1.723682        46.9038 
 221   0.0000       1.726622        46.9838 
 222   0.0000       1.755652        47.7737 
 223   0.0000       1.778105        48.3847 
 224   0.0000       1.797249        48.9056 
 225   0.0000       1.822277        49.5867 
 226   0.0000       1.865017        50.7497 
 227   0.0000       1.878385        51.1134 
 228   0.0000       1.878970        51.1294 
 229   0.0000       1.889356        51.4120 
 230   0.0000       1.897093        51.6225 
 231   0.0000       1.930133        52.5216 
 232   0.0000       1.939456        52.7753 
 233   0.0000       1.958458        53.2924 
 234   0.0000       1.977809        53.8189 
 235   0.0000       1.989292        54.1314 
 236   0.0000       2.008793        54.6620 
 237   0.0000       2.016572        54.8737 
 238   0.0000       2.025973        55.1295 
 239   0.0000       2.053126        55.8684 
 240   0.0000       2.069406        56.3114 
 241   0.0000       2.079514        56.5865 
 242   0.0000       2.092949        56.9520 
 243   0.0000       2.101412        57.1823 
 244   0.0000       2.119389        57.6715 
 245   0.0000       2.125835        57.8469 
 246   0.0000       2.193235        59.6810 
 247   0.0000       2.201837        59.9150 
 248   0.0000       2.225026        60.5460 
 249   0.0000       2.241147        60.9847 
 250   0.0000       2.248979        61.1978 
 251   0.0000       2.276256        61.9401 
 252   0.0000       2.281529        62.0836 
 253   0.0000       2.315111        62.9974 
 254   0.0000       2.338211        63.6260 
 255   0.0000       2.361709        64.2654 
 256   0.0000       2.375394        64.6378 
 257   0.0000       2.402371        65.3719 
 258   0.0000       2.443228        66.4836 
 259   0.0000       2.524956        68.7076 
 260   0.0000       2.589843        70.4732 
 261   0.0000       2.629292        71.5467 
 262   0.0000       2.683848        73.0312 
 263   0.0000       2.701231        73.5042 
 264   0.0000       2.762660        75.1758 
 265   0.0000       2.788902        75.8899 
 266   0.0000       2.854548        77.6762 
 267   0.0000       2.861958        77.8778 
 268   0.0000       2.870034        78.0976 
 269   0.0000       2.916325        79.3572 
 270   0.0000       3.020207        82.1840 
 271   0.0000       3.040241        82.7292 
 272   0.0000       3.085862        83.9706 
 273   0.0000       3.129213        85.1502 
 274   0.0000       3.139353        85.4261 
 275   0.0000       3.292347        89.5893 
 276   0.0000       3.311338        90.1061 
 277   0.0000       3.329974        90.6132 
 278   0.0000       3.333496        90.7090 
 279   0.0000       3.367754        91.6412 
 280   0.0000       3.398770        92.4852 
 281   0.0000       3.411508        92.8319 
 282   0.0000       3.432906        93.4141 
 283   0.0000       3.493673        95.0677 
 284   0.0000       3.529985        96.0558 
 285   0.0000       3.671325        99.9018 
 286   0.0000       3.729864       101.4948 
 287   0.0000       3.899606       106.1137 
 288   0.0000       3.957105       107.6783 

                    ********************************
                    * MULLIKEN POPULATION ANALYSIS *
                    ********************************

-----------------------
MULLIKEN ATOMIC CHARGES
-----------------------
   0 C :    0.563967
   1 C :   -1.783438
   2 C :    1.067708
   3 C :    0.741104
   4 C :    1.218589
   5 C :    1.690231
   6 H :   -0.908516
   7 H :   -0.810438
   8 H :   -0.930502
   9 N :    0.514234
  10 N :   -0.910661
  11 C :    0.405507
  12 O :   -0.537283
  13 O :   -0.587323
  14 H :    0.266820
Sum of atomic charges:    0.0000000

--------------------------------
MULLIKEN REDUCED ORBITAL CHARGES
--------------------------------
  0 C s       :     3.485385  s :     3.485385
      pz      :     0.904321  p :     2.110155
      px      :     0.570349
      py      :     0.635485
      dz2     :     0.012125  d :    -0.159507
      dxz     :     0.004959
      dyz     :    -0.002094
      dx2y2   :    -0.107367
      dxy     :    -0.067129
  1 C s       :     4.312142  s :     4.312142
      pz      :     0.619794  p :     3.419226
      px      :     1.497263
      py      :     1.302169
      dz2     :     0.010210  d :     0.052070
      dxz     :     0.007528
      dyz     :     0.013010
      dx2y2   :     0.069942
      dxy     :    -0.048620
  2 C s       :     3.349309  s :     3.349309
      pz      :     1.024922  p :     1.602231
      px      :     0.338723
      py      :     0.238586
      dz2     :     0.010645  d :    -0.019248
      dxz     :    -0.000156
      dyz     :     0.031726
      dx2y2   :    -0.062820
      dxy     :     0.001356
  3 C s       :     3.124824  s :     3.124824
      pz      :     0.924851  p :     2.410121
      px      :     0.914232
      py      :     0.571038
      dz2     :     0.014222  d :    -0.276049
      dxz     :     0.020126
      dyz     :    -0.005188
      dx2y2   :    -0.122391
      dxy     :    -0.182818
  4 C s       :     3.123791  s :     3.123791
      pz      :     0.943123  p :     1.996060
      px      :     0.263972
      py      :     0.788965
      dz2     :     0.012753  d :    -0.338441
      dxz     :     0.008678
      dyz     :    -0.000117
      dx2y2   :    -0.209294
      dxy     :    -0.150461
  5 C s       :     3.157895  s :     3.157895
      pz      :     0.888516  p :     0.881005
      px      :     0.112847
      py      :    -0.120358
      dz2     :     0.029228  d :     0.270868
      dxz     :     0.039215
      dyz     :     0.027591
      dx2y2   :     0.163022
      dxy     :     0.011813
  6 H s       :     1.892903  s :     1.892903
      pz      :     0.012407  p :     0.015613
      px      :    -0.026569
      py      :     0.029774
  7 H s       :     1.808223  s :     1.808223
      pz      :     0.010974  p :     0.002214
      px      :    -0.016520
      py      :     0.007761
  8 H s       :     1.931753  s :     1.931753
      pz      :     0.013109  p :    -0.001251
      px      :    -0.027144
      py      :     0.012784
  9 N s       :     3.461077  s :     3.461077
      pz      :     1.186437  p :     2.821562
      px      :     0.503054
      py      :     1.132070
      dz2     :     0.010910  d :     0.203126
      dxz     :     0.086899
      dyz     :     0.002975
      dx2y2   :     0.035407
      dxy     :     0.066935
 10 N s       :     4.643978  s :     4.643978
      pz      :     1.031866  p :     3.199007
      px      :     1.267948
      py      :     0.899193
      dz2     :     0.004054  d :     0.067676
      dxz     :     0.028033
      dyz     :     0.000393
      dx2y2   :     0.008395
      dxy     :     0.026801
 11 C s       :     3.811129  s :     3.811129
      pz      :     0.695343  p :     1.627867
      px      :     0.644323
      py      :     0.288202
      dz2     :     0.005011  d :     0.155497
      dxz     :     0.031339
      dyz     :     0.051462
      dx2y2   :     0.068391
      dxy     :    -0.000706
 12 O s       :     4.094779  s :     4.094779
      pz      :     1.411815  p :     4.409693
      px      :     1.691826
      py      :     1.306051
      dz2     :     0.002537  d :     0.032812
      dxz     :     0.002266
      dyz     :     0.012262
      dx2y2   :     0.007639
      dxy     :     0.008108
 13 O s       :     4.095298  s :     4.095298
      pz      :     1.771755  p :     4.485257
      px      :     1.184329
      py      :     1.529173
      dz2     :    -0.000000  d :     0.006768
      dxz     :     0.002290
      dyz     :     0.008021
      dx2y2   :    -0.003053
      dxy     :    -0.000490
 14 H s       :     0.661557  s :     0.661557
      pz      :     0.029620  p :     0.071623
      px      :     0.020426
      py      :     0.021577


                     *******************************
                     * LOEWDIN POPULATION ANALYSIS *
                     *******************************

----------------------
LOEWDIN ATOMIC CHARGES
----------------------
   0 C :   -0.018367
   1 C :    0.061489
   2 C :   -0.304800
   3 C :    0.047606
   4 C :    0.050449
   5 C :   -0.134176
   6 H :   -0.007672
   7 H :    0.009108
   8 H :    0.002285
   9 N :    0.005884
  10 N :    0.330523
  11 C :   -0.377956
  12 O :    0.113856
  13 O :    0.251669
  14 H :   -0.029896

-------------------------------
LOEWDIN REDUCED ORBITAL CHARGES
-------------------------------
  0 C s       :     2.634200  s :     2.634200
      pz      :     0.717878  p :     2.658440
      px      :     1.006115
      py      :     0.934447
      dz2     :     0.068562  d :     0.725728
      dxz     :     0.092978
      dyz     :     0.044369
      dx2y2   :     0.248118
      dxy     :     0.271701
  1 C s       :     2.789669  s :     2.789669
      pz      :     0.555948  p :     2.606365
      px      :     1.023749
      py      :     1.026669
      dz2     :     0.061590  d :     0.542478
      dxz     :     0.071851
      dyz     :     0.071362
      dx2y2   :     0.171617
      dxy     :     0.166057
  2 C s       :     2.601546  s :     2.601546
      pz      :     0.835657  p :     2.632317
      px      :     0.758968
      py      :     1.037693
      dz2     :     0.104604  d :     1.070936
      dxz     :     0.103745
      dyz     :     0.155908
      dx2y2   :     0.392688
      dxy     :     0.313991
  3 C s       :     2.615703  s :     2.615703
      pz      :     0.760555  p :     2.653021
      px      :     0.966989
      py      :     0.925477
      dz2     :     0.067752  d :     0.683670
      dxz     :     0.130410
      dyz     :     0.051711
      dx2y2   :     0.207688
      dxy     :     0.226110
  4 C s       :     2.608862  s :     2.608862
      pz      :     0.756658  p :     2.649005
      px      :     0.956996
      py      :     0.935352
      dz2     :     0.066947  d :     0.691684
      dxz     :     0.091876
      dyz     :     0.079087
      dx2y2   :     0.194848
      dxy     :     0.258926
  5 C s       :     2.590137  s :     2.590137
      pz      :     0.749794  p :     2.637112
      px      :     0.919106
      py      :     0.968212
      dz2     :     0.094194  d :     0.906927
      dxz     :     0.094885
      dyz     :     0.147691
      dx2y2   :     0.309373
      dxy     :     0.260784
  6 H s       :     0.731112  s :     0.731112
      pz      :     0.064678  p :     0.276561
      px      :     0.092279
      py      :     0.119604
  7 H s       :     0.735306  s :     0.735306
      pz      :     0.074245  p :     0.255586
      px      :     0.063918
      py      :     0.117423
  8 H s       :     0.722893  s :     0.722893
      pz      :     0.073167  p :     0.274822
      px      :     0.104729
      py      :     0.096926
  9 N s       :     2.936722  s :     2.936722
      pz      :     1.004373  p :     3.293832
      px      :     1.287702
      py      :     1.001756
      dz2     :     0.076443  d :     0.763563
      dxz     :     0.257203
      dyz     :     0.008256
      dx2y2   :     0.214608
      dxy     :     0.207053
 10 N s       :     3.243910  s :     3.243910
      pz      :     0.955678  p :     3.143566
      px      :     1.329851
      py      :     0.858036
      dz2     :     0.033641  d :     0.282001
      dxz     :     0.077282
      dyz     :     0.001116
      dx2y2   :     0.101344
      dxy     :     0.068618
 11 C s       :     2.569279  s :     2.569279
      pz      :     0.648913  p :     2.433558
      px      :     0.890363
      py      :     0.894282
      dz2     :     0.128334  d :     1.375119
      dxz     :     0.143939
      dyz     :     0.247399
      dx2y2   :     0.420897
      dxy     :     0.434550
 12 O s       :     3.368761  s :     3.368761
      pz      :     1.311094  p :     4.342908
      px      :     1.577208
      py      :     1.454606
      dz2     :     0.020517  d :     0.174474
      dxz     :     0.006309
      dyz     :     0.032466
      dx2y2   :     0.053636
      dxy     :     0.061546
 13 O s       :     3.233243  s :     3.233243
      pz      :     1.571704  p :     4.332475
      px      :     1.261654
      py      :     1.499116
      dz2     :     0.024577  d :     0.182613
      dxz     :     0.012223
      dyz     :     0.024311
      dx2y2   :     0.062774
      dxy     :     0.058728
 14 H s       :     0.610078  s :     0.610078
      pz      :     0.109835  p :     0.419818
      px      :     0.189831
      py      :     0.120153


                      *****************************
                      * MAYER POPULATION ANALYSIS *
                      *****************************

  NA   - Mulliken gross atomic population
  ZA   - Total nuclear charge
  QA   - Mulliken gross atomic charge
  VA   - Mayer's total valence
  BVA  - Mayer's bonded valence
  FA   - Mayer's free valence

  ATOM       NA         ZA         QA         VA         BVA        FA
  0 C      5.4360     6.0000     0.5640    -0.2887    -0.2887    -0.0000
  1 C      7.7834     6.0000    -1.7834     1.6654     1.6654    -0.0000
  2 C      4.9323     6.0000     1.0677     2.3225     2.3225    -0.0000
  3 C      5.2589     6.0000     0.7411     1.6738     1.6738     0.0000
  4 C      4.7814     6.0000     1.2186     0.5425     0.5425     0.0000
  5 C      4.3098     6.0000     1.6902    -1.0934    -1.0934    -0.0000
  6 H      1.9085     1.0000    -0.9085     0.1276     0.1276    -0.0000
  7 H      1.8104     1.0000    -0.8104     0.2077     0.2077     0.0000
  8 H      1.9305     1.0000    -0.9305    -0.0288    -0.0288    -0.0000
  9 N      6.4858     7.0000     0.5142     1.9465     1.9465    -0.0000
 10 N      7.9107     7.0000    -0.9107     0.9874     0.9874     0.0000
 11 C      5.5945     6.0000     0.4055     1.2230     1.2230     0.0000
 12 O      8.5373     8.0000    -0.5373     1.6511     1.6511     0.0000
 13 O      8.5873     8.0000    -0.5873     1.6237     1.6237     0.0000
 14 H      0.7332     1.0000     0.2668     0.9049     0.9049     0.0000

  Mayer bond orders larger than 0.1
B(  0-C ,  1-C ) :   1.5590 B(  0-C ,  4-C ) :  -0.8039 B(  0-C ,  5-C ) :  -0.7869 
B(  0-C ,  8-H ) :   0.1923 B(  0-C , 11-C ) :  -0.4725 B(  1-C ,  2-C ) :   0.4889 
B(  1-C ,  3-C ) :  -0.2165 B(  1-C ,  5-C ) :  -0.7358 B(  1-C ,  6-H ) :   0.1008 
B(  1-C ,  7-H ) :   0.1293 B(  1-C , 11-C ) :   0.2087 B(  2-C ,  3-C ) :   0.7529 
B(  2-C ,  4-C ) :  -0.5813 B(  2-C ,  5-C ) :   0.4532 B(  2-C ,  7-H ) :   0.8834 
B(  2-C ,  8-H ) :  -0.2513 B(  2-C ,  9-N ) :   0.8691 B(  2-C , 10-N ) :  -0.4962 
B(  2-C , 11-C ) :   0.1892 B(  3-C ,  4-C ) :   1.8158 B(  3-C ,  5-C ) :  -0.7834 
B(  3-C ,  7-H ) :  -0.7195 B(  3-C ,  8-H ) :   0.4639 B(  3-C ,  9-N ) :  -0.1278 
B(  3-C , 10-N ) :   0.1298 B(  3-C , 11-C ) :   0.3311 B(  4-C ,  5-C ) :   0.8524 
B(  4-C ,  6-H ) :   0.2029 B(  4-C ,  7-H ) :   0.1239 B(  4-C ,  8-H ) :  -0.7946 
B(  4-C , 11-C ) :  -0.6002 B(  4-C , 13-O ) :   0.1168 B(  5-C ,  6-H ) :  -0.2671 
B(  5-C ,  7-H ) :  -0.1235 B(  5-C ,  8-H ) :   0.3908 B(  5-C , 11-C ) :  -0.3804 
B(  5-C , 13-O ) :   0.2182 B(  6-H , 11-C ) :   0.1061 B(  7-H ,  9-N ) :  -0.1162 
B(  9-N , 10-N ) :   1.1712 B( 11-C , 12-O ) :   1.6136 B( 11-C , 13-O ) :   0.2753 
B( 12-O , 13-O ) :   0.1808 B( 13-O , 14-H ) :   0.9076 

-------
TIMINGS
-------

Total SCF time: 0 days 0 hours 0 min 59 sec 

Total time                  ....      59.414 sec
Sum of individual times     ....      58.670 sec  ( 98.7%)

Fock matrix formation       ....      46.957 sec  ( 79.0%)
  XC integration            ....       7.122 sec  ( 15.2% of F)
    Basis function eval.    ....       1.436 sec  ( 20.2% of XC)
    Density eval.           ....       1.593 sec  ( 22.4% of XC)
    XC-Functional eval.     ....       0.182 sec  (  2.6% of XC)
    XC-Potential eval.      ....       2.189 sec  ( 30.7% of XC)
Diagonalization             ....       0.246 sec  (  0.4%)
Density matrix formation    ....       0.249 sec  (  0.4%)
Population analysis         ....       0.044 sec  (  0.1%)
Initial guess               ....       0.582 sec  (  1.0%)
Orbital Transformation      ....       0.000 sec  (  0.0%)
Orbital Orthonormalization  ....       0.000 sec  (  0.0%)
DIIS solution               ....       0.648 sec  (  1.1%)
SOSCF solution              ....       0.439 sec  (  0.7%)
Grid generation             ....       9.505 sec  ( 16.0%)

-------------------------   --------------------
FINAL SINGLE POINT ENERGY      -529.046551301234
-------------------------   --------------------



------------------------------------------------------------------------------- 
                         Nudged Elastic Band Calculation                       
------------------------------------------------------------------------------- 

Number of images (incl. end points)     ....  14
Number of intermediate images           ....  12
Number of optimized images              ....  12
Optimization of end points before NEB   ....  NO
Number of atoms                         ....  15
Number of (active) degrees of freedom   ....  45
Constrained atoms                       ....  None

-----------------------------------------
  REACTANT (ANGSTROEM)
-----------------------------------------
C     -1.414398    -1.476425    -1.060842 
C      0.003295    -1.302556    -1.116706 
C      0.312070     0.046271    -0.890987 
C     -0.523766     1.168180    -0.635879 
C     -1.873772     0.897574    -0.601781 
C     -2.318041    -0.437837    -0.816684 
H     -1.835643    -2.471764    -1.215435 
H     -0.129162     2.172416    -0.477982 
H     -2.592644     1.690524    -0.413575 
N      1.692311     0.290918    -0.931713 
N      2.800081     0.420235    -0.976550 
C     -3.780344    -0.761361    -0.785147 
O     -4.253854    -1.863353    -0.956974 
O     -4.560247     0.328254    -0.540728 
H     -5.478287     0.012814    -0.542208 

-----------------------------------------
  PRODUCT (ANGSTROEM)
-----------------------------------------
C     -1.809380    -1.753441    -1.086924 
C     -0.458650    -1.468995    -1.117788 
C      0.090793    -0.355314    -0.949716 
C     -0.535219     0.856300    -0.692266 
C     -1.935883     0.685762    -0.637755 
C     -2.558196    -0.571245    -0.827428 
H     -2.301479    -2.712062    -1.230495 
H     -0.058492     1.823091    -0.546348 
H     -2.561863     1.555102    -0.442307 
N      3.118272     1.507916    -0.797758 
N      4.061568     0.956322    -0.955773 
C     -4.040554    -0.721412    -0.764497 
O     -4.637351    -1.767593    -0.914848 
O     -4.689706     0.446923    -0.510132 
H     -5.636258     0.232547    -0.489185 



----------------------
NEB settings
----------------------
Method type                             ....  climbing image
Threshold for climbing image            ....  2.00e-02 Eh/Bohr 
Free endpoints                          ....  off 
Tangent type                            ....  improved 
Number of intermediate images           ....  12 
Number of images free to move           ....  12 
Spring type for image distribution      ....  distance between adjacent images 
Spring constant                         ....  1.00e-01 Eh/Bohr^2 
Spring force perp. to the path          ....  tan 
Generation of initial path              ....  image dependent pair potential 
Initial path via TS guess               ....  off 

Minimization of RMSD: Rotation          ....  always 
Minimization of RMSD: Translation type  ....  centroid 
Center fixed to origin                  ....  true 

Reparametrization of the path           ....  on reset 
               Every 0 iterations
               Type of interpolation    ....  linear
Convergence thresholds:
Convergence monitored for               ....  all images
Scaling factor                          ....  100.00

Convergence parameters for regular images:
               Max(|Fp|)                ....  1.00e-01 Eh/Bohr
               RMS(Fp)                  ....  5.00e-02 Eh/Bohr

Convergence parameters for climbing image:
               Max(|F|)                 ....  1.00e-03 Eh/Bohr
               RMS(F)                   ....  5.00e-04 Eh/Bohr
Optimization method:
Method                                  ....  L-BFGS (global)
Max. iterations                         ....  1000 
Step size                               ....  1.00 
Maximum allowed step size               ....  0.10 Bohr
Turn on L-BFGS                          ....  0.0000 Eh/Bohr

LBFGS parameters: 
               Memory                   ....  7 
Generation of  the initial path:
Minimize RMSD between reactant and product configurations     .... done
       RMSD before minimization         ....  1.2990 Bohr
       RMSD after minimization          ....  1.2979 Bohr
Performing linear interpolation         ....  done
Interpolation using                     ....  IDPP (Image Dependent Pair Potential)
IDPP-Settings:
       Convergence tolerance            ....  0.0100 1/Ang.^3
       Max. numer of iterations         ....    7000
       Spring constant                  ....  1.0000 1/Ang.^4
       Time step                        ....  0.0100 fs
       Max. movement per iteration      ....  0.0500 Ang.
       Full print                       ....  false 
IDPP successfuly converged in 84 iterations
Displacement along initial path:              5.0296 Bohr
Writing initial trajectory to file      ....  4-HOOC-C6H3-N2-NEB-TS_initial_path.trj



----------------------
NEB OPTIMIZATION      
----------------------

Following output files will be written:
Energy profile during opt. written to    ....  4-HOOC-C6H3-N2-NEB-TS.interp
Optimization log-file                    ....  4-HOOC-C6H3-N2-NEB-TS.log
Current trajectory will be written to    ....  4-HOOC-C6H3-N2-NEB-TS_MEP.trj
       and to allxyz file                ....  4-HOOC-C6H3-N2-NEB-TS_MEP.allxyz
       and individual images to xyz file ....  4-HOOC-C6H3-N2-NEB-TS_im{NIm}.xyz
Trajectory history will be written to    ....  4-HOOC-C6H3-N2-NEB-TS_MEP_ALL.trj
Converged CI will be written to          ....  4-HOOC-C6H3-N2-NEB-TS_CI-NEB_converged.xyz
Converged TS will be written to          ....  4-HOOC-C6H3-N2-NEB-TS.xyz

Single point energy and gradient calculation of reactant and
product configurations (have to be performed only once)
Properties of fixed NEB end points:
               Reactant:
                         E               ....   -529.046551 Eh
                         RMS(F)          ....      0.000190 Eh/Bohr
                         MAX(|F|)        ....      0.000702 Eh/Bohr
               Product:
                         E               ....   -529.087969 Eh
                         RMS(F)          ....      0.000214 Eh/Bohr
                         MAX(|F|)        ....      0.000736 Eh/Bohr



Starting iterations:

Optim.  Iteration  HEI  E(HEI)-E(0)  max(|Fp|)   RMS(Fp)    dS
Switch-on CI threshold               0.020000 
List of participating nodes    ...  4-HOOC-C6H3-N2-NEB-TS.hostnames
LBFGS(G)     0      2    0.008353    0.094423   0.024743  5.0296       
LBFGS(G)     1      2    0.008345    0.094336   0.024718  5.0296       
LBFGS(G)     2      1    0.004156    0.032741   0.009120  5.0470       
LBFGS(G)     3      1    0.004236    0.034361   0.009969  5.0583       
LBFGS(G)     4      1    0.003943    0.018372   0.005736  5.0620       

Image  1 will be converted to a climbing image in the next iteration (max(|Fp|) < 0.0200) 

Optim.  Iteration  CI   E(CI)-E(0)   max(|Fp|)   RMS(Fp)    dS     max(|FCI|)   RMS(FCI)
Convergence thresholds               0.100000   0.050000            0.001000    0.000500 
LBFGS(G)     5      1    0.003813    0.014601   0.004305  5.0635    0.012306    0.004108       
LBFGS(G)     6      1    0.003842    0.013621   0.004117  5.0674    0.016516    0.005348       
LBFGS(G)     7      1    0.003836    0.019359   0.005931  5.1243    0.007062    0.002708       
LBFGS(G)     8      1    0.010034    0.042175   0.009327  5.2071    0.149081    0.054415       
LBFGS(G)     9      1    0.003884    0.009374   0.003167  5.1667    0.013058    0.004717       
LBFGS(G)    10      1    0.003825    0.009272   0.002492  5.1674    0.004868    0.002115       
LBFGS(G)    11      1    0.003859    0.010499   0.002898  5.1840    0.015793    0.005971       
LBFGS(G)    12      1    0.003806    0.017005   0.003531  5.2002    0.017082    0.006391       
LBFGS(G)    13      1    0.003481    0.037729   0.005458  5.2633    0.005719    0.002509       
LBFGS(G)    14      1    0.003374    0.010679   0.003540  5.3041    0.014254    0.004671       
LBFGS(G)    15      1    0.003302    0.019933   0.003448  5.3098    0.005045    0.002225       
LBFGS(G)    16      1    0.003274    0.025012   0.004048  5.3462    0.010199    0.003675       
LBFGS(G)    17      1    0.003899    0.065074   0.008682  5.3966    0.043895    0.015286       
LBFGS(G)    18      1    0.003371    0.025939   0.004158  5.4074    0.021716    0.007261       
LBFGS(G)    19      1    0.003229    0.010392   0.003554  5.4534    0.006082    0.002435       
LBFGS(G)    20      1    0.003300    0.024884   0.004841  5.5270    0.019963    0.006620       
LBFGS(G)    21      1    0.003315    0.025942   0.005638  5.6526    0.024003    0.008247       
LBFGS(G)    22      1    0.003083    0.039966   0.005508  5.8023    0.006884    0.002785       
LBFGS(G)    23      1    0.002995    0.020133   0.004205  5.9581    0.006193    0.002951       
LBFGS(G)    24      1    0.002957    0.013116   0.002897  5.9446    0.002944    0.001604       
LBFGS(G)    25      1    0.002927    0.020534   0.003134  5.9512    0.006771    0.002730       
LBFGS(G)    26      1    0.002881    0.025945   0.004210  5.9700    0.003562    0.002161       
LBFGS(G)    27      1    0.002858    0.033203   0.005662  6.0261    0.007592    0.002979       
LBFGS(G)    28      1    0.002826    0.007202   0.001995  5.9996    0.002494    0.001235       
LBFGS(G)    29      1    0.002816    0.010496   0.001983  6.0092    0.002422    0.001096       
LBFGS(G)    30      1    0.002810    0.006289   0.002122  6.0322    0.001860    0.001096       
LBFGS(G)    31      1    0.002806    0.044018   0.004920  6.0851    0.002432    0.001287       
LBFGS(G)    32      1    0.002795    0.007188   0.001902  6.0809    0.001106    0.000626       
LBFGS(G)    33      1    0.002792    0.004383   0.001630  6.0777    0.000964    0.000600       
LBFGS(G)    34      1    0.002792    0.016047   0.002195  6.0710    0.001350    0.001004       
LBFGS(G)    35      1    0.002783    0.033125   0.004041  6.0655    0.001660    0.000867       
LBFGS(G)    36      1    0.002778    0.017456   0.002282  6.0624    0.001351    0.000655       
LBFGS(G)    37      1    0.002775    0.005337   0.001318  6.0590    0.000988    0.000491       

                                .--------------------.
          ----------------------| CI-NEB convergence |-------------------------
          Item                value                   Tolerance       Converged
          ---------------------------------------------------------------------
          RMS(Fp)             0.0013182999            0.0500000000      YES
          MAX(|Fp|)           0.0053369774            0.1000000000      YES
          RMS(FCI)            0.0004909704            0.0005000000      YES
          MAX(|FCI|)          0.0009883256            0.0010000000      YES
          ---------------------------------------------------------------------

The elastic band and climbing image have converged succesfully to a MEP in 37 iterations!


                    *********************H U R R A Y*********************
                    ***        THE NEB OPTIMIZATION HAS CONVERGED     ***
                    *****************************************************



---------------------------------------------------------------
                         PATH SUMMARY              
---------------------------------------------------------------
All forces in Eh/Bohr.

Image Dist.(Ang.)    E(Eh)   dE(kcal/mol)  max(|Fp|)  RMS(Fp)
  0     0.000    -529.04655      0.00       0.00051   0.00026
  1     0.257    -529.04378      1.74       0.00098   0.00049 <= CI
  2     0.491    -529.05140     -3.04       0.00414   0.00188
  3     0.729    -529.06347    -10.62       0.00364   0.00198
  4     0.973    -529.07313    -16.68       0.00378   0.00174
  5     1.224    -529.07928    -20.54       0.00270   0.00176
  6     1.480    -529.08323    -23.01       0.00299   0.00129
  7     1.738    -529.08471    -23.95       0.00260   0.00147
  8     2.001    -529.08572    -24.58       0.00198   0.00123
  9     2.250    -529.08653    -25.09       0.00146   0.00088
 10     2.501    -529.08724    -25.53       0.00096   0.00055
 11     2.740    -529.08770    -25.82       0.00063   0.00032
 12     2.977    -529.08792    -25.96       0.00028   0.00014
 13     3.206    -529.08797    -25.99       0.00074   0.00037

Straight line distance between images along the path:
        D( 0- 1) =   0.2569 Ang.
        D( 1- 2) =   0.2341 Ang.
        D( 2- 3) =   0.2382 Ang.
        D( 3- 4) =   0.2438 Ang.
        D( 4- 5) =   0.2508 Ang.
        D( 5- 6) =   0.2559 Ang.
        D( 6- 7) =   0.2581 Ang.
        D( 7- 8) =   0.2632 Ang.
        D( 8- 9) =   0.2489 Ang.
        D( 9-10) =   0.2512 Ang.
        D(10-11) =   0.2385 Ang.
        D(11-12) =   0.2371 Ang.
        D(12-13) =   0.2296 Ang.

---------------------------------------------------------------
               INFORMATION ABOUT SADDLE POINT     
---------------------------------------------------------------

Climbing image                            ....  1 
Energy                                    ....  -529.04377635 Eh
Max. abs. force                           ....  9.8833e-04 Eh/Bohr

-----------------------------------------
  SADDLE POINT (ANGSTROEM)
-----------------------------------------
C      0.182327    -1.388202    -0.262921 
C      1.585515    -1.153210    -0.306624 
C      1.845172     0.144795    -0.087080 
C      1.054394     1.269243     0.165586 
C     -0.303100     0.979957     0.196587 
C     -0.736860    -0.353356    -0.018734 
H     -0.219370    -2.390975    -0.420114 
H      1.450232     2.273537     0.323504 
H     -1.029474     1.766078     0.383912 
N      3.402348     0.460023    -0.125868 
N      4.507417     0.366333    -0.210968 
C     -2.195280    -0.683128     0.011008 
O     -2.668297    -1.786325    -0.159960 
O     -2.979093     0.406564     0.256532 
H     -3.895932     0.088666     0.255140 

-----------------------------------------
  FORCES (Eh/Bohr)
-----------------------------------------
C     -0.000390    -0.000300    -0.000036 
C     -0.000469    -0.000293    -0.000021 
C     -0.000034     0.000454     0.000078 
C     -0.000145     0.000458     0.000098 
C      0.000284     0.000395     0.000045 
C      0.000311     0.000202     0.000032 
H      0.000070     0.000029     0.000000 
H     -0.000209    -0.000525    -0.000082 
H      0.000164     0.000278     0.000040 
N      0.000268     0.000195     0.000021 
N     -0.000261    -0.000424    -0.000061 
C      0.000186     0.000357     0.000039 
O      0.000234     0.000378     0.000059 
O      0.000081    -0.000988    -0.000179 
H     -0.000089    -0.000216    -0.000033 

-----------------------------------------
  UNIT TANGENT
-----------------------------------------
C     -0.023695    -0.012988    -0.001136 
C     -0.087197     0.213690     0.044428 
C     -0.288201     0.011846     0.020251 
C     -0.064554     0.045488     0.012203 
C     -0.094714    -0.019502     0.001804 
C     -0.063753    -0.008500     0.001407 
H      0.038762    -0.031573    -0.008489 
H     -0.047485     0.039210     0.010252 
H     -0.112206    -0.034476    -0.000171 
N      0.489993     0.371257     0.037622 
N      0.446864    -0.465092    -0.111413 
C     -0.044458    -0.025220    -0.004099 
O     -0.043106    -0.029434    -0.001617 
O     -0.055308    -0.023289    -0.000514 
H     -0.050940    -0.031416    -0.000525 
 => Unit tangent is an approximation to the TS mode at the saddle point

Next a TS optimization is performed on the CI from the NEB run.

         *************************************************************
         *                       TS OPTIMIZATION                     *
         *************************************************************

Geometry optimization settings:
Update method            Update   .... Bofill
Choice of coordinates    CoordSys .... Z-matrix Internals
Initial Hessian          InHess   .... Read

Convergence Tolerances:
Energy Change            TolE     ....  1.0000e-06 Eh
Max. Gradient            TolMAXG  ....  1.0000e-04 Eh/bohr
RMS Gradient             TolRMSG  ....  3.0000e-05 Eh/bohr
Max. Displacement        TolMAXD  ....  1.0000e-03 bohr
RMS Displacement         TolRMSD  ....  6.0000e-04 bohr

------------------------------------------------------------------------------
                        ORCA OPTIMIZATION COORDINATE SETUP
------------------------------------------------------------------------------

The optimization will be done in new redundant internal coordinates
Making redundant internal coordinates   ...  (new redundants) done
Following TS mode number                ...     0
TS-active-atoms for coordinate setup... 9 10 
Evaluating the initial hessian          ... (Reading Exact Hessian)...  
InHessName: 4-HOOC-C6H3-N2-NEB-TS.appr.hess	The file <4-HOOC-C6H3-N2-NEB-TS.appr.hess> is opened as a .hess file
done
done
Diagonalizing the Hessian               .... done
Dimension of the hessian                .... 67
Lowest eigenvalues of the non projected Hessian:
 -0.016453849 -0.000000000 -0.000000000 -0.000000000 -0.000000000
done
Evaluating the coordinates              ...  done
Calculating the B-matrix                .... done
Calculating the G-matrix                .... done
Diagonalizing the G-matrix              .... done
The first mode is                       ....   28
The number of degrees of freedom        ....   39

    -----------------------------------------------------------------
                    Redundant Internal Coordinates


    -----------------------------------------------------------------
         Definition                    Initial Value    d2E/dq (diagonal element)
    -----------------------------------------------------------------
      1. B(C   1,C   0)                  1.4234         0.507182   
      2. B(C   2,C   1)                  1.3418         0.390913   
      3. B(C   3,C   2)                  1.3977         0.368126   
      4. B(C   4,C   3)                  1.3883         0.731704   
      5. B(C   5,C   4)                  1.4185         0.534811   
      6. B(C   5,C   0)                  1.4055         0.563799   
      7. B(H   6,C   0)                  1.0916         0.357765   
      8. B(H   7,C   3)                  1.0910         0.359690   
      9. B(H   8,C   4)                  1.0866         0.365816   
     10. B(N   9,C   2)                  1.5892         0.122493   
     11. B(N   9,C   3)                  2.5005         0.274198   
     12. B(N   9,C   1)                  2.4364         0.118630   
     13. B(N  10,N   9)                  1.1123         0.660308   
     14. B(N  10,C   2)                  2.6743         0.285027   
     15. B(C  11,C   5)                  1.4955         0.447555   
     16. B(O  12,C  11)                  1.2124         1.078241   
     17. B(O  13,C  11)                  1.3646         0.620105   
     18. B(H  14,O  13)                  0.9704         0.501817   
     19. A(C   1,C   0,C   5)          121.9031         0.164625   
     20. A(C   1,C   0,H   6)          120.6634         0.217868   
     21. A(C   5,C   0,H   6)          117.4335         0.216097   
     22. A(C   0,C   1,C   2)          110.2089         0.229397   
     23. A(C   1,C   2,N   9)          112.1785         0.121033   
     24. A(C   3,C   2,N   9)          113.5280         0.236362   
     25. A(C   1,C   2,C   3)          134.2935         0.184221   
     26. A(C   2,C   3,C   4)          112.9303         0.147344   
     27. A(C   2,C   3,H   7)          124.1573         0.210412   
     28. A(C   4,C   3,H   7)          122.9124         0.217237   
     29. A(C   5,C   4,H   8)          120.1169         0.228415   
     30. A(C   3,C   4,H   8)          120.4469         0.218096   
     31. A(C   3,C   4,C   5)          119.4362         0.162349   
     32. A(C   0,C   5,C   4)          121.2279         0.169890   
     33. A(C   4,C   5,C  11)          120.1610         0.289132   
     34. A(C   0,C   5,C  11)          118.6112         0.256211   
     35. A(C   2,N   9,N  10)          163.4602         0.444427   
     36. A(O  12,C  11,O  13)          121.8623         0.314248   
     37. A(C   5,C  11,O  13)          112.8076         0.303567   
     38. A(C   5,C  11,O  12)          125.3300         0.298176   
     39. A(C  11,O  13,H  14)          106.3102         0.367968   
     40. D(C   2,C   1,C   0,C   5)      0.0068         0.007881   
     41. D(C   2,C   1,C   0,H   6)   -179.9976         0.010485   
     42. D(N   9,C   2,C   1,C   0)   -179.9936         0.028658   
     43. D(C   3,C   2,C   1,C   0)     -0.0013         0.007044   
     44. D(C   4,C   3,C   2,N   9)    179.9918         0.021720   
     45. D(H   7,C   3,C   2,C   1)    179.9973         0.008283   
     46. D(H   7,C   3,C   2,N   9)     -0.0105         0.022318   
     47. D(C   4,C   3,C   2,C   1)     -0.0004         0.007946   
     48. D(H   8,C   4,C   3,H   7)      0.0017         0.011805   
     49. D(H   8,C   4,C   3,C   2)    179.9994         0.008930   
     50. D(C   5,C   4,C   3,C   2)     -0.0033         0.009254   
     51. D(C   5,C   4,C   3,H   7)    179.9990         0.010665   
     52. D(C  11,C   5,C   0,C   1)    179.9926         0.008490   
     53. D(C   4,C   5,C   0,H   6)    179.9932         0.009046   
     54. D(C   4,C   5,C   0,C   1)     -0.0110         0.008128   
     55. D(C  11,C   5,C   4,H   8)      0.0025         0.009363   
     56. D(C  11,C   5,C   4,C   3)   -179.9948         0.010321   
     57. D(C   0,C   5,C   4,H   8)   -179.9938         0.007994   
     58. D(C   0,C   5,C   4,C   3)      0.0089         0.008921   
     59. D(C  11,C   5,C   0,H   6)     -0.0032         0.009952   
     60. D(N  10,N   9,C   2,C   3)   -179.9984         0.080701   
     61. D(N  10,N   9,C   2,C   1)     -0.0044         0.139005   
     62. D(O  13,C  11,C   5,C   4)      0.0169         0.007658   
     63. D(O  13,C  11,C   5,C   0)   -179.9866         0.007520   
     64. D(O  12,C  11,C   5,C   4)   -179.9897         0.008138   
     65. D(O  12,C  11,C   5,C   0)      0.0067         0.007584   
     66. D(H  14,O  13,C  11,O  12)      0.0031         0.016870   
     67. D(H  14,O  13,C  11,C   5)    179.9967         0.016871   
    -----------------------------------------------------------------

Number of atoms                         .... 15
Number of degrees of freedom            .... 67

         *************************************************************
         *                GEOMETRY OPTIMIZATION CYCLE   1            *
         *************************************************************


           ************************************************************
           *        Program running with 42 parallel MPI-processes    *
           *            working without local directories             *
           ************************************************************
------------------------------------------------------------------------------
                           ORCA GTO INTEGRAL CALCULATION
------------------------------------------------------------------------------

                         BASIS SET STATISTICS AND STARTUP INFO

 # of primitive gaussian shells          ...  303
 # of primitive gaussian functions       ...  517
 # of contracted shells                  ...  119
 # of contracted basis functions         ...  289
 Highest angular momentum                ...    2
 Maximum contraction depth               ...    8
 Integral package used                   ... LIBINT
 Integral threshhold            Thresh   ...  2.500e-11
 Primitive cut-off              TCut     ...  2.500e-12


------------------------------ INTEGRAL EVALUATION ----------------------------


 * One electron integrals 
 Pre-screening matrix                    ... done
 Shell pair data                         ... done (   0.003 sec)



           ************************************************************
           *        Program running with 42 parallel MPI-processes    *
           *            working without local directories             *
           ************************************************************
-------------------------------------------------------------------------------
                                 ORCA SCF
-------------------------------------------------------------------------------

------------
SCF SETTINGS
------------
Hamiltonian:
 Density Functional     Method          .... DFT(GTOs)
 Exchange Functional    Exchange        .... B88
   X-Alpha parameter    XAlpha          ....  0.666667
   Becke's b parameter  XBeta           ....  0.004200
 Correlation Functional Correlation     .... LYP
 LDA part of GGA corr.  LDAOpt          .... VWN-3
 Gradients option       PostSCFGGA      .... off
 Hybrid DFT is turned on
   Fraction HF Exchange ScalHFX         ....  0.200000
   Scaling of DF-GGA-X  ScalDFX         ....  0.720000
   Scaling of DF-GGA-C  ScalDFC         ....  0.810000
   Scaling of DF-LDA-C  ScalLDAC        ....  1.000000
   Perturbative correction              ....  0.000000
   Density functional embedding theory  .... OFF
   NL short-range parameter             ....  4.800000


General Settings:
 Integral files         IntName         .... 4-HOOC-C6H3-N2-NEB-TS
 Hartree-Fock type      HFTyp           .... RHF
 Total Charge           Charge          ....    0
 Multiplicity           Mult            ....    1
 Number of Electrons    NEL             ....   76
 Basis Dimension        Dim             ....  289
 Nuclear Repulsion      ENuc            ....    519.7457580725 Eh

Convergence Acceleration:
 DIIS                   CNVDIIS         .... on
   Start iteration      DIISMaxIt       ....    12
   Startup error        DIISStart       ....  0.200000
   # of expansion vecs  DIISMaxEq       ....     5
   Bias factor          DIISBfac        ....   1.050
   Max. coefficient     DIISMaxC        ....  10.000
 Newton-Raphson         CNVNR           .... off
 SOSCF                  CNVSOSCF        .... on
   Start iteration      SOSCFMaxIt      ....   150
   Startup grad/error   SOSCFStart      ....  0.003300
 Level Shifting         CNVShift        .... on
   Level shift para.    LevelShift      ....    0.2500
   Turn off err/grad.   ShiftErr        ....    0.0010
 Zerner damping         CNVZerner       .... off
 Static damping         CNVDamp         .... on
   Fraction old density DampFac         ....    0.7000
   Max. Damping (<1)    DampMax         ....    0.9800
   Min. Damping (>=0)   DampMin         ....    0.0000
   Turn off err/grad.   DampErr         ....    0.1000
 Fernandez-Rico         CNVRico         .... off

SCF Procedure:
 Maximum # iterations   MaxIter         ....  1000
 SCF integral mode      SCFMode         .... Direct
   Integral package                     .... LIBINT
 Reset frequency        DirectResetFreq ....    20
 Integral Threshold     Thresh          ....  2.500e-11 Eh
 Primitive CutOff       TCut            ....  2.500e-12 Eh

Convergence Tolerance:
 Convergence Check Mode ConvCheckMode   .... Total+1el-Energy
 Convergence forced     ConvForced      .... 0
 Energy Change          TolE            ....  1.000e-08 Eh
 1-El. energy change                    ....  1.000e-05 Eh
 Orbital Gradient       TolG            ....  1.000e-05
 Orbital Rotation angle TolX            ....  1.000e-05
 DIIS Error             TolErr          ....  5.000e-07


Diagonalization of the overlap matrix:
Smallest eigenvalue                        ... 3.450e-06
Time for diagonalization                   ...    0.022 sec
Threshold for overlap eigenvalues          ... 1.000e-08
Number of eigenvalues below threshold      ... 0
Time for construction of square roots      ...    0.022 sec
Total time needed                          ...    0.044 sec

---------------------
INITIAL GUESS: MOREAD
---------------------
Guess MOs are being read from file: 4-HOOC-C6H3-N2-NEB-TS.gbw
Input Geometry matches current geometry (good)
Input basis set matches current basis set (good)
MOs were renormalized
MOs were reorthogonalized (Cholesky)
[...]
Kinetic Energy     :          525.83554375 Eh           14308.71259 eV
Virial Ratio       :            2.00610127


DFT components:
N(Alpha)           :       37.999999737785 electrons
N(Beta)            :       37.999999737785 electrons
N(Total)           :       75.999999475569 electrons
E(X)               :      -53.458418687289 Eh       
E(C)               :       -3.381508307575 Eh       
E(XC)              :      -56.839926994865 Eh       
DFET-embed. en.    :        0.000000000000 Eh       

---------------
SCF CONVERGENCE
---------------

  Last Energy change         ...    3.6152e-11  Tolerance :   1.0000e-08
  Last MAX-Density change    ...    1.5632e-02  Tolerance :   1.0000e-07
  Last RMS-Density change    ...    1.3235e-04  Tolerance :   5.0000e-09
  Last Orbital Gradient      ...    5.8776e-06  Tolerance :   1.0000e-05
  Last Orbital Rotation      ...    6.4312e-06  Tolerance :   1.0000e-05

             **** THE GBW FILE WAS UPDATED (4-HOOC-C6H3-N2-NEB-TS.gbw) ****
             **** DENSITY FILE WAS UPDATED (4-HOOC-C6H3-N2-NEB-TS.scfp.tmp) ****
             **** ENERGY FILE WAS UPDATED (4-HOOC-C6H3-N2-NEB-TS.en.tmp) ****
----------------
ORBITAL ENERGIES
----------------

  NO   OCC          E(Eh)            E(eV) 
   0   2.0000     -19.205993      -522.6216 
   1   2.0000     -19.148415      -521.0549 
   2   2.0000     -14.531174      -395.4133 
   3   2.0000     -14.505196      -394.7064 
   4   2.0000     -10.331908      -281.1455 
   5   2.0000     -10.277935      -279.6768 
   6   2.0000     -10.232530      -278.4413 
   7   2.0000     -10.225076      -278.2385 
   8   2.0000     -10.219737      -278.0932 
   9   2.0000     -10.211200      -277.8609 
  10   2.0000     -10.171501      -276.7806 
  11   2.0000      -1.193697       -32.4822 
  12   2.0000      -1.121018       -30.5044 
  13   2.0000      -1.031165       -28.0594 
  14   2.0000      -0.898063       -24.4375 
  15   2.0000      -0.818065       -22.2607 
  16   2.0000      -0.771045       -20.9812 
  17   2.0000      -0.720996       -19.6193 
  18   2.0000      -0.640048       -17.4166 
  19   2.0000      -0.633907       -17.2495 
  20   2.0000      -0.576738       -15.6938 
  21   2.0000      -0.545446       -14.8423 
  22   2.0000      -0.538181       -14.6446 
  23   2.0000      -0.526322       -14.3220 
  24   2.0000      -0.517637       -14.0856 
  25   2.0000      -0.498890       -13.5755 
  26   2.0000      -0.468179       -12.7398 
  27   2.0000      -0.463295       -12.6069 
  28   2.0000      -0.460189       -12.5224 
  29   2.0000      -0.423106       -11.5133 
  30   2.0000      -0.417865       -11.3707 
  31   2.0000      -0.393735       -10.7141 
  32   2.0000      -0.377843       -10.2816 
  33   2.0000      -0.338038        -9.1985 
  34   2.0000      -0.294839        -8.0230 
  35   2.0000      -0.290143        -7.8952 
  36   2.0000      -0.270939        -7.3726 
  37   2.0000      -0.216239        -5.8842 
  38   0.0000      -0.112895        -3.0720 
  39   0.0000      -0.110014        -2.9936 
  40   0.0000      -0.048838        -1.3290 
  41   0.0000      -0.032701        -0.8898 
  42   0.0000      -0.020391        -0.5549 
  43   0.0000      -0.008476        -0.2307 
  44   0.0000       0.013060         0.3554 
  45   0.0000       0.021420         0.5829 
  46   0.0000       0.031723         0.8632 
  47   0.0000       0.032585         0.8867 
  48   0.0000       0.036867         1.0032 
  49   0.0000       0.046565         1.2671 
  50   0.0000       0.056188         1.5289 
  51   0.0000       0.058468         1.5910 
  52   0.0000       0.058872         1.6020 
  53   0.0000       0.072082         1.9614 
  54   0.0000       0.079316         2.1583 
  55   0.0000       0.080047         2.1782 
  56   0.0000       0.083968         2.2849 
  57   0.0000       0.087889         2.3916 
  58   0.0000       0.091541         2.4910 
  59   0.0000       0.103449         2.8150 
  60   0.0000       0.105322         2.8659 
  61   0.0000       0.115314         3.1379 
  62   0.0000       0.119948         3.2639 
  63   0.0000       0.120081         3.2676 
  64   0.0000       0.122761         3.3405 
  65   0.0000       0.128938         3.5086 
  66   0.0000       0.135926         3.6987 
  67   0.0000       0.136754         3.7213 
  68   0.0000       0.157426         4.2838 
  69   0.0000       0.161550         4.3960 
  70   0.0000       0.166532         4.5316 
  71   0.0000       0.169455         4.6111 
  72   0.0000       0.179031         4.8717 
  73   0.0000       0.181184         4.9303 
  74   0.0000       0.188348         5.1252 
  75   0.0000       0.191815         5.2195 
  76   0.0000       0.195376         5.3164 
  77   0.0000       0.205716         5.5978 
  78   0.0000       0.206251         5.6124 
  79   0.0000       0.213911         5.8208 
  80   0.0000       0.219309         5.9677 
  81   0.0000       0.222735         6.0609 
  82   0.0000       0.228763         6.2250 
  83   0.0000       0.236112         6.4249 
  84   0.0000       0.239609         6.5201 
  85   0.0000       0.240367         6.5407 
  86   0.0000       0.244686         6.6582 
  87   0.0000       0.256384         6.9766 
  88   0.0000       0.266045         7.2394 
  89   0.0000       0.271963         7.4005 
  90   0.0000       0.274540         7.4706 
  91   0.0000       0.282061         7.6753 
  92   0.0000       0.285800         7.7770 
  93   0.0000       0.293585         7.9888 
  94   0.0000       0.295644         8.0449 
  95   0.0000       0.307311         8.3624 
  96   0.0000       0.316357         8.6085 
  97   0.0000       0.317178         8.6309 
  98   0.0000       0.326075         8.8729 
  99   0.0000       0.329607         8.9691 
 100   0.0000       0.334109         9.0916 
 101   0.0000       0.342675         9.3247 
 102   0.0000       0.362794         9.8721 
 103   0.0000       0.375982        10.2310 
 104   0.0000       0.377544        10.2735 
 105   0.0000       0.381540        10.3822 
 106   0.0000       0.384922        10.4743 
 107   0.0000       0.390915        10.6373 
 108   0.0000       0.402211        10.9447 
 109   0.0000       0.419151        11.4057 
 110   0.0000       0.431596        11.7443 
 111   0.0000       0.452219        12.3055 
 112   0.0000       0.455480        12.3942 
 113   0.0000       0.466482        12.6936 
 114   0.0000       0.477113        12.9829 
 115   0.0000       0.485100        13.2002 
 116   0.0000       0.497308        13.5324 
 117   0.0000       0.506022        13.7696 
 118   0.0000       0.508427        13.8350 
 119   0.0000       0.516996        14.0682 
 120   0.0000       0.526340        14.3224 
 121   0.0000       0.536804        14.6072 
 122   0.0000       0.541713        14.7407 
 123   0.0000       0.543112        14.7788 
 124   0.0000       0.551788        15.0149 
 125   0.0000       0.561137        15.2693 
 126   0.0000       0.563570        15.3355 
 127   0.0000       0.570462        15.5231 
 128   0.0000       0.571985        15.5645 
 129   0.0000       0.579004        15.7555 
 130   0.0000       0.585649        15.9363 
 131   0.0000       0.608696        16.5635 
 132   0.0000       0.611758        16.6468 
 133   0.0000       0.618894        16.8410 
 134   0.0000       0.626011        17.0346 
 135   0.0000       0.634189        17.2572 
 136   0.0000       0.640670        17.4335 
 137   0.0000       0.650037        17.6884 
 138   0.0000       0.653942        17.7947 
 139   0.0000       0.688209        18.7271 
 140   0.0000       0.692874        18.8541 
 141   0.0000       0.700631        19.0651 
 142   0.0000       0.707900        19.2629 
 143   0.0000       0.711661        19.3653 
 144   0.0000       0.714768        19.4498 
 145   0.0000       0.715871        19.4798 
 146   0.0000       0.730614        19.8810 
 147   0.0000       0.733081        19.9481 
 148   0.0000       0.738059        20.0836 
 149   0.0000       0.738690        20.1008 
 150   0.0000       0.749949        20.4071 
 151   0.0000       0.754801        20.5392 
 152   0.0000       0.767817        20.8934 
 153   0.0000       0.772526        21.0215 
 154   0.0000       0.792809        21.5734 
 155   0.0000       0.797017        21.6879 
 156   0.0000       0.810841        22.0641 
 157   0.0000       0.823411        22.4061 
 158   0.0000       0.827298        22.5119 
 159   0.0000       0.843113        22.9423 
 160   0.0000       0.851869        23.1805 
 161   0.0000       0.864549        23.5256 
 162   0.0000       0.869795        23.6683 
 163   0.0000       0.879631        23.9360 
 164   0.0000       0.887648        24.1541 
 165   0.0000       0.890048        24.2194 
 166   0.0000       0.901737        24.5375 
 167   0.0000       0.938889        25.5485 
 168   0.0000       0.940693        25.5976 
 169   0.0000       0.964931        26.2571 
 170   0.0000       0.978219        26.6187 
 171   0.0000       0.997041        27.1309 
 172   0.0000       1.012361        27.5478 
 173   0.0000       1.015796        27.6412 
 174   0.0000       1.051805        28.6211 
 175   0.0000       1.069042        29.0901 
 176   0.0000       1.070111        29.1192 
 177   0.0000       1.091963        29.7138 
 178   0.0000       1.103883        30.0382 
 179   0.0000       1.111561        30.2471 
 180   0.0000       1.141726        31.0679 
 181   0.0000       1.150972        31.3196 
 182   0.0000       1.156820        31.4787 
 183   0.0000       1.184583        32.2341 
 184   0.0000       1.187882        32.3239 
 185   0.0000       1.209454        32.9109 
 186   0.0000       1.237972        33.6869 
 187   0.0000       1.248403        33.9708 
 188   0.0000       1.265972        34.4488 
 189   0.0000       1.271763        34.6064 
 190   0.0000       1.274199        34.6727 
 191   0.0000       1.295829        35.2613 
 192   0.0000       1.306636        35.5554 
 193   0.0000       1.322043        35.9746 
 194   0.0000       1.360962        37.0337 
 195   0.0000       1.372821        37.3564 
 196   0.0000       1.388549        37.7843 
 197   0.0000       1.397958        38.0404 
 198   0.0000       1.405825        38.2545 
 199   0.0000       1.437234        39.1091 
 200   0.0000       1.443965        39.2923 
 201   0.0000       1.459069        39.7033 
 202   0.0000       1.474328        40.1185 
 203   0.0000       1.487086        40.4657 
 204   0.0000       1.496747        40.7286 
 205   0.0000       1.515859        41.2486 
 206   0.0000       1.518521        41.3211 
 207   0.0000       1.533851        41.7382 
 208   0.0000       1.546085        42.0711 
 209   0.0000       1.550492        42.1910 
 210   0.0000       1.560755        42.4703 
 211   0.0000       1.581944        43.0469 
 212   0.0000       1.604376        43.6573 
 213   0.0000       1.604504        43.6608 
 214   0.0000       1.633315        44.4447 
 215   0.0000       1.652398        44.9640 
 216   0.0000       1.671100        45.4729 
 217   0.0000       1.682184        45.7745 
 218   0.0000       1.684661        45.8420 
 219   0.0000       1.709367        46.5142 
 220   0.0000       1.721921        46.8558 
 221   0.0000       1.735871        47.2354 
 222   0.0000       1.750154        47.6241 
 223   0.0000       1.785002        48.5724 
 224   0.0000       1.807378        49.1813 
 225   0.0000       1.822737        49.5992 
 226   0.0000       1.857275        50.5390 
 227   0.0000       1.871225        50.9186 
 228   0.0000       1.890850        51.4527 
 229   0.0000       1.892334        51.4930 
 230   0.0000       1.900780        51.7229 
 231   0.0000       1.925022        52.3825 
 232   0.0000       1.932552        52.5874 
 233   0.0000       1.961734        53.3815 
 234   0.0000       1.963318        53.4246 
 235   0.0000       1.997833        54.3638 
 236   0.0000       2.008181        54.6454 
 237   0.0000       2.014857        54.8270 
 238   0.0000       2.035867        55.3987 
 239   0.0000       2.045664        55.6653 
 240   0.0000       2.061773        56.1037 
 241   0.0000       2.094309        56.9890 
 242   0.0000       2.098751        57.1099 
 243   0.0000       2.113387        57.5082 
 244   0.0000       2.126048        57.8527 
 245   0.0000       2.164469        58.8982 
 246   0.0000       2.187395        59.5220 
 247   0.0000       2.208983        60.1095 
 248   0.0000       2.218000        60.3548 
 249   0.0000       2.234466        60.8029 
 250   0.0000       2.248285        61.1789 
 251   0.0000       2.262154        61.5563 
 252   0.0000       2.296156        62.4816 
 253   0.0000       2.304817        62.7173 
 254   0.0000       2.326680        63.3122 
 255   0.0000       2.347082        63.8674 
 256   0.0000       2.393604        65.1333 
 257   0.0000       2.417308        65.7783 
 258   0.0000       2.477716        67.4221 
 259   0.0000       2.544179        69.2306 
 260   0.0000       2.586677        70.3871 
 261   0.0000       2.622793        71.3698 
 262   0.0000       2.686748        73.1101 
 263   0.0000       2.700285        73.4785 
 264   0.0000       2.753617        74.9297 
 265   0.0000       2.776587        75.5548 
 266   0.0000       2.827826        76.9491 
 267   0.0000       2.859992        77.8243 
 268   0.0000       2.890911        78.6657 
 269   0.0000       2.895590        78.7930 
 270   0.0000       2.992504        81.4302 
 271   0.0000       3.015256        82.0493 
 272   0.0000       3.040912        82.7474 
 273   0.0000       3.110236        84.6338 
 274   0.0000       3.138465        85.4020 
 275   0.0000       3.212818        87.4252 
 276   0.0000       3.296142        89.6926 
 277   0.0000       3.334131        90.7263 
 278   0.0000       3.354317        91.2756 
 279   0.0000       3.371830        91.7521 
 280   0.0000       3.402525        92.5874 
 281   0.0000       3.415801        92.9487 
 282   0.0000       3.429448        93.3200 
 283   0.0000       3.498898        95.2099 
 284   0.0000       3.528938        96.0273 
 285   0.0000       3.674554        99.9897 
 286   0.0000       3.746238       101.9403 
 287   0.0000       3.939883       107.2097 
 288   0.0000       3.963323       107.8475 
-------
TIMINGS
-------

Total SCF time: 0 days 0 hours 0 min 29 sec 

Total time                  ....      29.172 sec
Sum of individual times     ....      28.495 sec  ( 97.7%)

Fock matrix formation       ....      18.554 sec  ( 63.6%)
  XC integration            ....       2.512 sec  ( 13.5% of F)
    Basis function eval.    ....       0.634 sec  ( 25.3% of XC)
    Density eval.           ....       0.683 sec  ( 27.2% of XC)
    XC-Functional eval.     ....       0.078 sec  (  3.1% of XC)
    XC-Potential eval.      ....       0.476 sec  ( 18.9% of XC)
Diagonalization             ....       0.037 sec  (  0.1%)
Density matrix formation    ....       0.090 sec  (  0.3%)
Population analysis         ....       0.000 sec  (  0.0%)
Initial guess               ....       0.057 sec  (  0.2%)
Orbital Transformation      ....       0.000 sec  (  0.0%)
Orbital Orthonormalization  ....       0.029 sec  (  0.1%)
DIIS solution               ....       0.011 sec  (  0.0%)
SOSCF solution              ....       0.264 sec  (  0.9%)
Grid generation             ....       9.481 sec  ( 32.5%)

-------------------------   --------------------
FINAL SINGLE POINT ENERGY      -529.043809381234
-------------------------   --------------------

                                *** OPTIMIZATION RUN DONE ***


                    ***********************HURRAY************************
                    ***        THE TS OPTIMIZATION HAS CONVERGED      ***
                    *****************************************************



---------------------------------------------------------------
                      PATH SUMMARY FOR NEB-TS             
---------------------------------------------------------------
All forces in Eh/Bohr. Global forces for TS.

Image     E(Eh)   dE(kcal/mol)  max(|Fp|)  RMS(Fp)
  0    -529.04655     0.00       0.00051   0.00026
  1    -529.04378     1.74       0.00098   0.00049 <= CI
 TS    -529.04381     1.72       0.00033   0.00011 <= TS
  2    -529.05140    -3.04       0.00414   0.00188
  3    -529.06347   -10.62       0.00364   0.00198
  4    -529.07313   -16.68       0.00378   0.00174
  5    -529.07928   -20.54       0.00270   0.00176
  6    -529.08323   -23.01       0.00299   0.00129
  7    -529.08471   -23.95       0.00260   0.00147
  8    -529.08572   -24.58       0.00198   0.00123
  9    -529.08653   -25.09       0.00146   0.00088
 10    -529.08724   -25.53       0.00096   0.00055
 11    -529.08770   -25.82       0.00063   0.00032
 12    -529.08792   -25.96       0.00028   0.00014
 13    -529.08797   -25.99       0.00074   0.00037
----------
STATISTICS
----------

For the individual parts of the NEB, NEB-CI or NEB-TS run:

Number of iterations:
     NEB                               ... 38  71.7%
     TS optimization                   ... 15  28.3%
Number of SCF / gradient calculations:
     NEB                               ... 458  96.8%
     TS optimization                   ... 15  3.2%

----------
 TIMINGS
----------

For the individual parts of the NEB, NEB-CI or NEB-TS run:

Total                                  ...    32748.524 sec
NEB                                    ...    31822.535 sec  97.2%
TS Optimization                        ...      925.989 sec  2.8%


                            ***************************************
                            *     ORCA property calculations      *
                            ***************************************

                                    ---------------------
                                    Active property flags
                                    ---------------------
   (+) Dipole Moment


------------------------------------------------------------------------------
                       ORCA ELECTRIC PROPERTIES CALCULATION
------------------------------------------------------------------------------

Dipole Moment Calculation                       ... on
Quadrupole Moment Calculation                   ... off
Polarizability Calculation                      ... off
GBWName                                         ... 4-HOOC-C6H3-N2-NEB-TS.gbw
Electron density file                           ... 4-HOOC-C6H3-N2-NEB-TS.scfp.tmp
The origin for moment calculation is the CENTER OF MASS  = ( 0.432957, -0.294519 -0.080052)

-------------
DIPOLE MOMENT
-------------
                                X             Y             Z
Electronic contribution:      4.94622      -0.35472      -0.36844
Nuclear contribution   :     -4.37592       2.20664       0.66934
                        -----------------------------------------
Total Dipole Moment    :      0.57031       1.85193       0.30090
                        -----------------------------------------
Magnitude (a.u.)       :      1.96098
Magnitude (Debye)      :      4.98441



--------------------
Rotational spectrum 
--------------------
 
Rotational constants in cm-1:     0.128397     0.019089     0.016619 
Rotational constants in MHz :  3849.259028   572.280985   498.210520 

 Dipole components along the rotational axes: 
x,y,z [a.u.] :    -0.848652     1.767830    -0.000021 
x,y,z [Debye]:    -2.157101     4.493466    -0.000053 

 

Timings for individual modules:

Sum of individual times         ...     1139.816 sec (=  18.997 min)
GTO integral calculation        ...       42.920 sec (=   0.715 min)   3.8 %
SCF iterations                  ...      836.201 sec (=  13.937 min)  73.4 %
SCF Gradient evaluation         ...      258.901 sec (=   4.315 min)  22.7 %
Geometry relaxation             ...        1.793 sec (=   0.030 min)   0.2 %
                             ****ORCA TERMINATED NORMALLY****
TOTAL RUN TIME: 0 days 9 hours 6 minutes 53 seconds 595 msec
