
                                 *****************
                                 * O   R   C   A *
                                 *****************

           --- An Ab Initio, DFT and Semiempirical electronic structure package ---

                  #######################################################
                  #                        -***-                        #
                  #          Department of theory and spectroscopy      #
                  #               Directorship: Frank Neese             #
                  #        Max Planck Institute fuer Kohlenforschung    #
                  #                Kaiser Wilhelm Platz 1               #
                  #                 D-45470 Muelheim/Ruhr               #
                  #                      Germany                        #
                  #                                                     #
                  #                  All rights reserved                #
                  #                        -***-                        #
                  #######################################################


                         Program Version 4.1.0  - RELEASE  -


 With contributions from (in alphabetic order):
   Daniel Aravena         : Magnetic Properties
   Michael Atanasov       : Ab Initio Ligand Field Theory
   Alexander A. Auer      : GIAO ZORA
   Ute Becker             : Parallelization
   Giovanni Bistoni       : ED, Open-shell LED
   Martin Brehm           : Molecular dynamics
   Dmytro Bykov           : SCF Hessian
   Vijay G. Chilkuri      : MRCI spin determinant printing
   Dipayan Datta          : RHF DLPNO-CCSD density
   Achintya Kumar Dutta   : EOM-CC, STEOM-CC
   Dmitry Ganyushin       : Spin-Orbit,Spin-Spin,Magnetic field MRCI
   Miquel Garcia          : C-PCM Hessian
   Yang Guo               : DLPNO-NEVPT2, CIM, IAO-localization
   Andreas Hansen         : Spin unrestricted coupled pair/coupled cluster methods
   Benjamin Helmich-Paris : CASSCF linear response (MC-RPA)
   Lee Huntington         : MR-EOM, pCC
   Robert Izsak           : Overlap fitted RIJCOSX, COSX-SCS-MP3, EOM
   Christian Kollmar      : KDIIS, OOCD, Brueckner-CCSD(T), CCSD density
   Simone Kossmann        : Meta GGA functionals, TD-DFT gradient, OOMP2, MP2 Hessian
   Martin Krupicka        : AUTO-CI
   Lucas Lang             : DCDCAS
   Dagmar Lenk            : GEPOL surface, SMD
   Dimitrios Liakos       : Extrapolation schemes; parallel MDCI
   Dimitrios Manganas     : ROCIS; embedding schemes
   Dimitrios Pantazis     : SARC Basis sets
   Taras Petrenko         : DFT Hessian,TD-DFT gradient, ASA, ECA, R-Raman, ABS, FL, XAS/XES, NRVS
   Peter Pinski           : DLPNO-MP2, DLPNO-MP2 Gradient
   Christoph Reimann      : Effective Core Potentials
   Marius Retegan         : Local ZFS, SOC
   Christoph Riplinger    : Optimizer, TS searches, QM/MM, DLPNO-CCSD(T), (RO)-DLPNO pert. Triples
   Tobias Risthaus        : Range-separated hybrids, TD-DFT gradient, RPA, STAB
   Michael Roemelt        : Restricted open shell CIS
   Masaaki Saitow         : Open-shell DLPNO
   Barbara Sandhoefer     : DKH picture change effects
   Avijit Sen             : IP-ROCIS
   Kantharuban Sivalingam : CASSCF convergence, NEVPT2, FIC-MRCI
   Bernardo de Souza      : ESD, SOC TD-DFT
   Georgi Stoychev        : AutoAux, RI-MP2 NMR
   Willem Van den Heuvel  : Paramagnetic NMR
   Boris Wezisla          : Elementary symmetry handling
   Frank Wennmohs         : Technical directorship


 We gratefully acknowledge several colleagues who have allowed us to
 interface, adapt or use parts of their codes:
   Stefan Grimme, W. Hujo, H. Kruse,             : VdW corrections, initial TS optimization,
                  C. Bannwarth                     DFT functionals, gCP, sTDA/sTD-DF
   Ed Valeev                                     : LibInt (2-el integral package), F12 methods
   Garnet Chan, S. Sharma, J. Yang, R. Olivares  : DMRG
   Ulf Ekstrom                                   : XCFun DFT Library
   Mihaly Kallay                                 : mrcc  (arbitrary order and MRCC methods)
   Andreas Klamt, Michael Diedenhofen            : otool_cosmo (COSMO solvation model)
   Jiri Pittner, Ondrej Demel                    : Mk-CCSD
   Frank Weinhold                                : gennbo (NPA and NBO analysis)
   Christopher J. Cramer and Donald G. Truhlar   : smd solvation model
   Lars Goerigk                                  : TD-DFT with DH, B97 family of functionals
   V. Asgeirsson, H. Jonsson                     : NEB implementation
   FAccTs GmbH                                   : IRC, NEB, NEB-TS, Multilevel


 Your calculation uses the libint2 library for the computation of 2-el integrals
 For citations please refer to: http://libint.valeyev.net

 This ORCA versions uses:
   CBLAS   interface :  Fast vector & matrix operations
   LAPACKE interface :  Fast linear algebra routines
   SCALAPACK package :  Parallel linear algebra routines




***************************************
The coordinates will be read from file: 4-NO2-C6H3-N2-source.xyz
***************************************


Your calculation utilizes a Nudged-Elastic-Band implementation
 by V.Asgeirsson, C. Riplinger & H. Jonsson
Please cite in your paper:
 V. Asgeirsson et al., in prep. (2019)
   

----- Orbital basis set information -----
Your calculation utilizes the basis: aug-cc-pVDZ 
    H, B-Ne : Obtained from the ccRepo (grant-hill.group.shef.ac.uk/ccrepo) Feb. 2017
              R. A. Kendall, T. H. Dunning, Jr., R. J. Harrison, J. Chem. Phys. 96, 6796 (1992)
         He : Obtained from the ccRepo (grant-hill.group.shef.ac.uk/ccrepo) Feb. 2017
              D. E. Woon, T. H. Dunning, Jr., J. Chem. Phys. 100, 2975 (1994)
  Li-Be, Na : Obtained from the ccRepo (grant-hill.group.shef.ac.uk/ccrepo) Feb. 2017
              B. P. Prascher, D. E. Woon, K. A. Peterson, T. H. Dunning, Jr., A. K. Wilson, Theor. Chem. Acc. 128, 69 (2011)
         Mg : Obtained from the Peterson Research Group Website (tyr0.chem.wsu.edu/~kipeters) Feb. 2017
              B. P. Prascher, D. E. Woon, K. A. Peterson, T. H. Dunning, Jr., A. K. Wilson, Theor. Chem. Acc. 128, 69 (2011)
      Al-Ar : Obtained from the ccRepo (grant-hill.group.shef.ac.uk/ccrepo) Feb. 2017
              D. E. Woon, T. H. Dunning, Jr., J. Chem. Phys. 98, 1358 (1993)
      Sc-Zn : Obtained from the ccRepo (grant-hill.group.shef.ac.uk/ccrepo) Feb. 2017
              N. B. Balabanov, K. A. Peterson, J. Chem. Phys. 123, 064107 (2005)
              N. B. Balabanov, K. A. Peterson, J. Chem. Phys. 125, 074110 (2006)
      Ga-Kr : Obtained from the ccRepo (grant-hill.group.shef.ac.uk/ccrepo) Feb. 2017
              A. K. Wilson, D. E. Woon, K. A. Peterson, T. H. Dunning, Jr., J. Chem. Phys. 110, 7667 (1999)

================================================================================
                                        WARNINGS
                       Please study these warnings very carefully!
================================================================================


WARNING: Geometry Optimization
  ===> : Switching off AutoStart
         For restart on a previous wavefunction, please use MOREAD

INFO   : the flag for use of LIBINT has been found!

================================================================================
                                       INPUT FILE
================================================================================
NAME = 4-NO2-C6H3-N2-NEB-TS.orc
|  1> ! B3LYP/G aug-cc-pVDZ TightSCF Grid7 NEB-TS
|  2> %scf MaxIter 1000 end
|  3> %geom MaxIter 1000 TolE 1e-8 TolRMSG 5e-7 TolMaxG 1e-6 Convergence tight end
|  4> %neb
|  5>   Nimages 12
|  6>   neb_end_xyzfile "4-NO2-C6H3-N2-final.xyz"
|  7> end
|  8> * xyzfile 0 1 4-NO2-C6H3-N2-source.xyz
|  9> %pal nprocs 42 end
| 10> 
| 11>                          ****END OF INPUT****
================================================================================

Running a Single Point calculation on the reactant structure before starting the actual NEB.

---------------------------------
CARTESIAN COORDINATES (ANGSTROEM)
---------------------------------
  C     -1.985786   -0.202535   -0.627646
  C     -0.563780   -0.257837   -0.769304
  C      0.011586    0.877049   -0.190183
  C     -0.568152    1.993828    0.470093
  C     -1.943198    1.971545    0.556743
  C     -2.621196    0.865339   -0.006522
  H     -2.605609   -1.012331   -1.013134
  H      0.023150    2.811682    0.882537
  H     -2.504681    2.766062    1.039233
  N     -4.109237    0.864752    0.098972
  O     -4.724230   -0.005746   -0.504903
  O     -4.628812    1.736649    0.792509
  N      1.416827    0.879993   -0.310536
  N      2.522621    0.814969   -0.438472

----------------------------
CARTESIAN COORDINATES (A.U.)
----------------------------
  NO LB      ZA    FRAG     MASS         X           Y           Z
   0 C     6.0000    0    12.011   -3.752592   -0.382735   -1.186078
   1 C     6.0000    0    12.011   -1.065390   -0.487240   -1.453774
   2 C     6.0000    0    12.011    0.021894    1.657382   -0.359393
   3 C     6.0000    0    12.011   -1.073652    3.767790    0.888347
   4 C     6.0000    0    12.011   -3.672113    3.725680    1.052093
   5 C     6.0000    0    12.011   -4.953343    1.635254   -0.012324
   6 H     1.0000    0     1.008   -4.923888   -1.913029   -1.914545
   7 H     1.0000    0     1.008    0.043748    5.313308    1.667753
   8 H     1.0000    0     1.008   -4.733162    5.227099    1.963867
   9 N     7.0000    0    14.007   -7.765332    1.634145    0.187030
  10 O     8.0000    0    15.999   -8.927502   -0.010858   -0.954128
  11 O     8.0000    0    15.999   -8.747186    3.281791    1.497626
  12 N     7.0000    0    14.007    2.677415    1.662946   -0.586828
  13 N     7.0000    0    14.007    4.767062    1.540069   -0.828591

--------------------------------
INTERNAL COORDINATES (ANGSTROEM)
--------------------------------
 C      0   0   0     0.000000000000     0.00000000     0.00000000
 C      1   0   0     1.430114336140     0.00000000     0.00000000
 C      2   1   0     1.397995908102   109.68243091     0.00000000
 C      3   2   1     1.421005407723   131.49617968     0.03513230
 C      4   3   2     1.377953762420   115.06374536   359.61666841
 C      1   2   3     1.389206793939   121.92507568     0.67393884
 H      1   2   3     1.090207377114   120.10362900   180.60392483
 H      4   3   2     1.090244275617   122.96073057   179.50527424
 H      5   4   3     1.085963422152   122.14429701   179.89027130
 N      6   1   2     1.491775491377   119.18038762   179.55558276
 O     10   6   1     1.225009333408   117.78753360   351.69913658
 O     10   6   1     1.229290931581   117.46596592   171.36861096
 N      3   2   1     1.410388959575   112.11134635   180.46150249
 N     13   3   2     1.115067181234   176.14106666   357.26967268

---------------------------
INTERNAL COORDINATES (A.U.)
---------------------------
 C      0   0   0     0.000000000000     0.00000000     0.00000000
 C      1   0   0     2.702524435500     0.00000000     0.00000000
 C      2   1   0     2.641829402655   109.68243091     0.00000000
 C      3   2   1     2.685311055417   131.49617968     0.03513230
 C      4   3   2     2.603955236180   115.06374536   359.61666841
 C      1   2   3     2.625220383928   121.92507568     0.67393884
 H      1   2   3     2.060193371926   120.10362900   180.60392483
 H      4   3   2     2.060263099992   122.96073057   179.50527424
 H      5   4   3     2.052173459324   122.14429701   179.89027130
 N      6   1   2     2.819047131998   119.18038762   179.55558276
 O     10   6   1     2.314932151638   117.78753360   351.69913658
 O     10   6   1     2.323023199600   117.46596592   171.36861096
 N      3   2   1     2.665248875903   112.11134635   180.46150249
 N     13   3   2     2.107171593455   176.14106666   357.26967268

---------------------
BASIS SET INFORMATION
---------------------
There are 4 groups of distinct atoms

 Group   1 Type C   : 18s5p2d contracted to 4s3p2d pattern {8811/311/11}
 Group   2 Type H   : 5s2p contracted to 3s2p pattern {311/11}
 Group   3 Type N   : 18s5p2d contracted to 4s3p2d pattern {8811/311/11}
 Group   4 Type O   : 18s5p2d contracted to 4s3p2d pattern {8811/311/11}

Atom   0C    basis set group =>   1
Atom   1C    basis set group =>   1
Atom   2C    basis set group =>   1
Atom   3C    basis set group =>   1
Atom   4C    basis set group =>   1
Atom   5C    basis set group =>   1
Atom   6H    basis set group =>   2
Atom   7H    basis set group =>   2
Atom   8H    basis set group =>   2
Atom   9N    basis set group =>   3
Atom  10O    basis set group =>   4
Atom  11O    basis set group =>   4
Atom  12N    basis set group =>   3
Atom  13N    basis set group =>   3


           ************************************************************
           *        Program running with 42 parallel MPI-processes    *
           *            working without local directories             *
           ************************************************************
------------------------------------------------------------------------------
                           ORCA GTO INTEGRAL CALCULATION
------------------------------------------------------------------------------

                         BASIS SET STATISTICS AND STARTUP INFO

 # of primitive gaussian shells          ...  296
 # of primitive gaussian functions       ...  506
 # of contracted shells                  ...  114
 # of contracted basis functions         ...  280
 Highest angular momentum                ...    2
 Maximum contraction depth               ...    8
 Integral package used                   ... LIBINT
 Integral threshhold            Thresh   ...  2.500e-11
 Primitive cut-off              TCut     ...  2.500e-12


------------------------------ INTEGRAL EVALUATION ----------------------------


 * One electron integrals 
 Pre-screening matrix                    ... done
 Shell pair data                         ... done (   0.004 sec)



           ************************************************************
           *        Program running with 42 parallel MPI-processes    *
           *            working without local directories             *
           ************************************************************
-------------------------------------------------------------------------------
                                 ORCA SCF
-------------------------------------------------------------------------------

------------
SCF SETTINGS
------------
Hamiltonian:
 Density Functional     Method          .... DFT(GTOs)
 Exchange Functional    Exchange        .... B88
   X-Alpha parameter    XAlpha          ....  0.666667
   Becke's b parameter  XBeta           ....  0.004200
 Correlation Functional Correlation     .... LYP
 LDA part of GGA corr.  LDAOpt          .... VWN-3
 Gradients option       PostSCFGGA      .... off
 Hybrid DFT is turned on
   Fraction HF Exchange ScalHFX         ....  0.200000
   Scaling of DF-GGA-X  ScalDFX         ....  0.720000
   Scaling of DF-GGA-C  ScalDFC         ....  0.810000
   Scaling of DF-LDA-C  ScalLDAC        ....  1.000000
   Perturbative correction              ....  0.000000
   Density functional embedding theory  .... OFF
   NL short-range parameter             ....  4.800000


General Settings:
 Integral files         IntName         .... 4-NO2-C6H3-N2-NEB-TS
 Hartree-Fock type      HFTyp           .... RHF
 Total Charge           Charge          ....    0
 Multiplicity           Mult            ....    1
 Number of Electrons    NEL             ....   76
 Basis Dimension        Dim             ....  280
 Nuclear Repulsion      ENuc            ....    530.9400886172 Eh

Convergence Acceleration:
 DIIS                   CNVDIIS         .... on
   Start iteration      DIISMaxIt       ....    12
   Startup error        DIISStart       ....  0.200000
   # of expansion vecs  DIISMaxEq       ....     5
   Bias factor          DIISBfac        ....   1.050
   Max. coefficient     DIISMaxC        ....  10.000
 Newton-Raphson         CNVNR           .... off
 SOSCF                  CNVSOSCF        .... on
   Start iteration      SOSCFMaxIt      ....   150
   Startup grad/error   SOSCFStart      ....  0.003300
 Level Shifting         CNVShift        .... on
   Level shift para.    LevelShift      ....    0.2500
   Turn off err/grad.   ShiftErr        ....    0.0010
 Zerner damping         CNVZerner       .... off
 Static damping         CNVDamp         .... on
   Fraction old density DampFac         ....    0.7000
   Max. Damping (<1)    DampMax         ....    0.9800
   Min. Damping (>=0)   DampMin         ....    0.0000
   Turn off err/grad.   DampErr         ....    0.1000
 Fernandez-Rico         CNVRico         .... off

SCF Procedure:
 Maximum # iterations   MaxIter         ....  1000
 SCF integral mode      SCFMode         .... Direct
   Integral package                     .... LIBINT
 Reset frequency        DirectResetFreq ....    20
 Integral Threshold     Thresh          ....  2.500e-11 Eh
 Primitive CutOff       TCut            ....  2.500e-12 Eh

Convergence Tolerance:
 Convergence Check Mode ConvCheckMode   .... Total+1el-Energy
 Convergence forced     ConvForced      .... 0
 Energy Change          TolE            ....  1.000e-08 Eh
 1-El. energy change                    ....  1.000e-05 Eh
 Orbital Gradient       TolG            ....  1.000e-05
 Orbital Rotation angle TolX            ....  1.000e-05
 DIIS Error             TolErr          ....  5.000e-07


Diagonalization of the overlap matrix:
Smallest eigenvalue                        ... 4.171e-06
Time for diagonalization                   ...    0.020 sec
Threshold for overlap eigenvalues          ... 1.000e-08
Number of eigenvalues below threshold      ... 0
Time for construction of square roots      ...    0.020 sec
Total time needed                          ...    0.040 sec

-------------------
DFT GRID GENERATION
-------------------

General Integration Accuracy     IntAcc      ...  5.670
Radial Grid Type                 RadialGrid  ... Gauss-Chebyshev
Angular Grid (max. acc.)         AngularGrid ... Lebedev-770
Angular grid pruning method      GridPruning ... 3 (G Style)
Weight generation scheme         WeightScheme... Becke
Basis function cutoff            BFCut       ...    1.0000e-11
Integration weight cutoff        WCut        ...    1.0000e-14
Grids for H and He will be reduced by one unit

# of grid points (after initial pruning)     ... 328834 (   0.0 sec)
# of grid points (after weights+screening)   ... 303313 (   0.3 sec)
nearest neighbour list constructed           ...    0.0 sec
Grid point re-assignment to atoms done       ...    0.1 sec
Grid point division into batches done        ...    7.3 sec
Reduced shell lists constructed in    7.5 sec

Total number of grid points                  ...   303313
Total number of batches                      ...     4744
Average number of points per batch           ...       63
Average number of grid points per atom       ...    21665
Average number of shells per batch           ...    93.34 (81.88%)
Average number of basis functions per batch  ...   229.78 (82.06%)
Average number of large shells per batch     ...    78.68 (84.30%)
Average number of large basis fcns per batch ...   196.35 (85.45%)
Maximum spatial batch extension              ...   3.51,  8.02, 13.77 au
Average spatial batch extension              ...   0.03,  0.03,  0.03 au

Time for grid setup =    9.248 sec

------------------------------
INITIAL GUESS: MODEL POTENTIAL
------------------------------
Loading Hartree-Fock densities                     ... done
Calculating cut-offs                               ... done
Setting up the integral package                    ... done
Initializing the effective Hamiltonian             ... done
Starting the Coulomb interaction                   ... done (   0.0 sec)
Reading the grid                                   ... done
Mapping shells                                     ... done
Starting the XC term evaluation                    ... done (   0.3 sec)
  promolecular density results
     # of electrons  =     75.998529904
     EX              =    -67.748094140
     EC              =     -2.658342625
     EX+EC           =    -70.406436765
Transforming the Hamiltonian                       ... done (   0.0 sec)
Diagonalizing the Hamiltonian                      ... done (   0.0 sec)
Back transforming the eigenvectors                 ... done (   0.0 sec)
Now organizing SCF variables                       ... done
                      ------------------
                      INITIAL GUESS DONE (   9.8 sec)
                      ------------------
--------------
SCF ITERATIONS
--------------
ITER       Energy         Delta-E        Max-DP      RMS-DP      [F,P]     Damp
               ***  Starting incremental Fock matrix formation  ***
  0   -544.6803714089   0.000000000000 0.72313400  0.01378446  0.1972559 0.7000
  1   -544.8282290730  -0.147857664113 0.45330385  0.00990415  0.0702176 0.7000
                               ***Turning on DIIS***
  2   -544.8746795733  -0.046450500325 1.00827078  0.02068620  0.0272565 0.0000
  3   -544.9540572792  -0.079377705899 0.17997251  0.00325817  0.0410001 0.0000
  4   -544.9741382922  -0.020081012964 0.08309404  0.00135177  0.0128426 0.0000
  5   -544.9758359960  -0.001697703780 0.01507073  0.00042906  0.0059953 0.0000
                      *** Initiating the SOSCF procedure ***
                           *** Shutting down DIIS ***
                      *** Re-Reading the Fockian *** 
                      *** Removing any level shift *** 
ITER      Energy       Delta-E        Grad      Rot      Max-DP    RMS-DP
  6   -544.97607214  -0.0002361401  0.001518  0.001518  0.014452  0.000207
               *** Restarting incremental Fock matrix formation ***
  7   -544.97611470  -0.0000425680  0.001088  0.010338  0.033395  0.000360
  8   -544.97613994  -0.0000252310  0.001231  0.010639  0.022757  0.000274
  9   -544.97614273  -0.0000027956  0.001301  0.004423  0.016244  0.000180
 10   -544.97615448  -0.0000117494  0.000403  0.003806  0.016249  0.000208
 11   -544.97615602  -0.0000015383  0.000295  0.003067  0.014019  0.000175
 12   -544.97616025  -0.0000042280  0.000099  0.000479  0.011352  0.000099
 13   -544.97615989   0.0000003530  0.000133  0.000415  0.003534  0.000054
 14   -544.97616061  -0.0000007172  0.000030  0.000089  0.014748  0.000219
 15   -544.97616055   0.0000000574  0.000073  0.000091  0.007091  0.000083
 16   -544.97616063  -0.0000000804  0.000019  0.000038  0.014046  0.000250
 17   -544.97616062   0.0000000127  0.000024  0.000029  0.006680  0.000077
 18   -544.97616064  -0.0000000181  0.000004  0.000006  0.029753  0.000313
 19   -544.97616064   0.0000000024  0.000005  0.000007  0.007654  0.000075
 20   -544.97616064   0.0000000008  0.000003  0.000004  0.009400  0.000111
                  ***Gradient check signals convergence***
              ***Rediagonalizing the Fockian in SOSCF/NRSCF***

               *****************************************************
               *                     SUCCESS                       *
               *           SCF CONVERGED AFTER  21 CYCLES          *
               *****************************************************


----------------
TOTAL SCF ENERGY
----------------

Total Energy       :         -544.97616064 Eh          -14829.55525 eV

Components:
Nuclear Repulsion  :          530.94008862 Eh           14447.61431 eV
Electronic Energy  :        -1075.91624925 Eh          -29277.16956 eV
One Electron Energy:        -1790.97505466 Eh          -48734.90887 eV
Two Electron Energy:          715.05880541 Eh           19457.73931 eV

Virial components:
Potential Energy   :        -1086.66087223 Eh          -29569.54562 eV
Kinetic Energy     :          541.68471159 Eh           14739.99037 eV
Virial Ratio       :            2.00607632


DFT components:
N(Alpha)           :       37.999999646680 electrons
N(Beta)            :       37.999999646680 electrons
N(Total)           :       75.999999293359 electrons
E(X)               :      -54.278811014318 Eh       
E(C)               :       -3.404173768452 Eh       
E(XC)              :      -57.682984782770 Eh       
DFET-embed. en.    :        0.000000000000 Eh       

---------------
SCF CONVERGENCE
---------------

  Last Energy change         ...   -1.3375e-09  Tolerance :   1.0000e-08
  Last MAX-Density change    ...    3.7830e-03  Tolerance :   1.0000e-07
  Last RMS-Density change    ...    7.5554e-05  Tolerance :   5.0000e-09
  Last Orbital Gradient      ...    1.0554e-06  Tolerance :   1.0000e-05
  Last Orbital Rotation      ...    2.6399e-06  Tolerance :   1.0000e-05

             **** THE GBW FILE WAS UPDATED (4-NO2-C6H3-N2-NEB-TS.gbw) ****
             **** DENSITY FILE WAS UPDATED (4-NO2-C6H3-N2-NEB-TS.scfp.tmp) ****
             **** ENERGY FILE WAS UPDATED (4-NO2-C6H3-N2-NEB-TS.en.tmp) ****
----------------
ORBITAL ENERGIES
----------------

  NO   OCC          E(Eh)            E(eV) 
   0   2.0000     -19.197178      -522.3818 
   1   2.0000     -19.197125      -522.3803 
   2   2.0000     -14.582927      -396.8216 
   3   2.0000     -14.562668      -396.2704 
   4   2.0000     -14.521990      -395.1634 
   5   2.0000     -10.296089      -280.1708 
   6   2.0000     -10.275578      -279.6127 
   7   2.0000     -10.252313      -278.9796 
   8   2.0000     -10.237926      -278.5881 
   9   2.0000     -10.224687      -278.2279 
  10   2.0000     -10.190292      -277.2919 
  11   2.0000      -1.246623       -33.9223 
  12   2.0000      -1.216474       -33.1019 
  13   2.0000      -1.074438       -29.2370 
  14   2.0000      -0.934524       -25.4297 
  15   2.0000      -0.875700       -23.8290 
  16   2.0000      -0.797552       -21.7025 
  17   2.0000      -0.767599       -20.8874 
  18   2.0000      -0.670312       -18.2401 
  19   2.0000      -0.649972       -17.6866 
  20   2.0000      -0.589444       -16.0396 
  21   2.0000      -0.573477       -15.6051 
  22   2.0000      -0.567363       -15.4387 
  23   2.0000      -0.557729       -15.1766 
  24   2.0000      -0.549289       -14.9469 
  25   2.0000      -0.543634       -14.7930 
  26   2.0000      -0.528851       -14.3908 
  27   2.0000      -0.485084       -13.1998 
  28   2.0000      -0.478196       -13.0124 
  29   2.0000      -0.444511       -12.0958 
  30   2.0000      -0.410053       -11.1581 
  31   2.0000      -0.401735       -10.9318 
  32   2.0000      -0.331746        -9.0273 
  33   2.0000      -0.329721        -8.9722 
  34   2.0000      -0.316917        -8.6237 
  35   2.0000      -0.309015        -8.4087 
  36   2.0000      -0.287471        -7.8225 
  37   2.0000      -0.221475        -6.0266 
  38   0.0000      -0.141614        -3.8535 
  39   0.0000      -0.117715        -3.2032 
  40   0.0000      -0.089571        -2.4373 
  41   0.0000      -0.046245        -1.2584 
  42   0.0000      -0.026341        -0.7168 
  43   0.0000      -0.005601        -0.1524 
  44   0.0000       0.003778         0.1028 
  45   0.0000       0.010156         0.2764 
  46   0.0000       0.031887         0.8677 
  47   0.0000       0.032962         0.8969 
  48   0.0000       0.034268         0.9325 
  49   0.0000       0.046843         1.2747 
  50   0.0000       0.057381         1.5614 
  51   0.0000       0.063521         1.7285 
  52   0.0000       0.072350         1.9687 
  53   0.0000       0.073701         2.0055 
  54   0.0000       0.078689         2.1412 
  55   0.0000       0.088149         2.3987 
  56   0.0000       0.093309         2.5391 
  57   0.0000       0.100599         2.7374 
  58   0.0000       0.102891         2.7998 
  59   0.0000       0.107245         2.9183 
  60   0.0000       0.114034         3.1030 
  61   0.0000       0.117178         3.1886 
  62   0.0000       0.123386         3.3575 
  63   0.0000       0.124848         3.3973 
  64   0.0000       0.127908         3.4805 
  65   0.0000       0.128929         3.5083 
  66   0.0000       0.132499         3.6055 
  67   0.0000       0.142546         3.8789 
  68   0.0000       0.155918         4.2427 
  69   0.0000       0.163250         4.4422 
  70   0.0000       0.170134         4.6296 
  71   0.0000       0.171963         4.6793 
  72   0.0000       0.174743         4.7550 
  73   0.0000       0.183409         4.9908 
  74   0.0000       0.190536         5.1847 
  75   0.0000       0.193453         5.2641 
  76   0.0000       0.208474         5.6729 
  77   0.0000       0.210608         5.7309 
  78   0.0000       0.214920         5.8483 
  79   0.0000       0.220141         5.9903 
  80   0.0000       0.228774         6.2252 
  81   0.0000       0.234266         6.3747 
  82   0.0000       0.235460         6.4072 
  83   0.0000       0.246219         6.7000 
  84   0.0000       0.257940         7.0189 
  85   0.0000       0.261481         7.1153 
  86   0.0000       0.266854         7.2615 
  87   0.0000       0.269360         7.3297 
  88   0.0000       0.276886         7.5345 
  89   0.0000       0.282945         7.6993 
  90   0.0000       0.283734         7.7208 
  91   0.0000       0.290781         7.9126 
  92   0.0000       0.292551         7.9607 
  93   0.0000       0.295689         8.0461 
  94   0.0000       0.298624         8.1260 
  95   0.0000       0.313194         8.5224 
  96   0.0000       0.318717         8.6727 
  97   0.0000       0.324308         8.8249 
  98   0.0000       0.339563         9.2400 
  99   0.0000       0.347155         9.4466 
 100   0.0000       0.351440         9.5632 
 101   0.0000       0.367157         9.9908 
 102   0.0000       0.373375        10.1601 
 103   0.0000       0.377539        10.2734 
 104   0.0000       0.385697        10.4953 
 105   0.0000       0.399531        10.8718 
 106   0.0000       0.418436        11.3862 
 107   0.0000       0.429016        11.6741 
 108   0.0000       0.437474        11.9043 
 109   0.0000       0.445407        12.1201 
 110   0.0000       0.447814        12.1856 
 111   0.0000       0.455137        12.3849 
 112   0.0000       0.471173        12.8213 
 113   0.0000       0.484742        13.1905 
 114   0.0000       0.489431        13.3181 
 115   0.0000       0.507083        13.7984 
 116   0.0000       0.511063        13.9067 
 117   0.0000       0.516518        14.0552 
 118   0.0000       0.533620        14.5205 
 119   0.0000       0.535575        14.5737 
 120   0.0000       0.543074        14.7778 
 121   0.0000       0.549068        14.9409 
 122   0.0000       0.552309        15.0291 
 123   0.0000       0.571155        15.5419 
 124   0.0000       0.585246        15.9254 
 125   0.0000       0.585828        15.9412 
 126   0.0000       0.593320        16.1451 
 127   0.0000       0.601046        16.3553 
 128   0.0000       0.609414        16.5830 
 129   0.0000       0.617812        16.8115 
 130   0.0000       0.629493        17.1294 
 131   0.0000       0.646976        17.6051 
 132   0.0000       0.652779        17.7630 
 133   0.0000       0.655658        17.8414 
 134   0.0000       0.665814        18.1177 
 135   0.0000       0.680434        18.5155 
 136   0.0000       0.686885        18.6911 
 137   0.0000       0.698053        18.9950 
 138   0.0000       0.701941        19.1008 
 139   0.0000       0.707489        19.2517 
 140   0.0000       0.710287        19.3279 
 141   0.0000       0.718157        19.5421 
 142   0.0000       0.724147        19.7050 
 143   0.0000       0.726863        19.7789 
 144   0.0000       0.744812        20.2674 
 145   0.0000       0.755715        20.5641 
 146   0.0000       0.765236        20.8231 
 147   0.0000       0.771904        21.0046 
 148   0.0000       0.781084        21.2544 
 149   0.0000       0.798190        21.7199 
 150   0.0000       0.805079        21.9073 
 151   0.0000       0.819451        22.2984 
 152   0.0000       0.834614        22.7110 
 153   0.0000       0.850134        23.1333 
 154   0.0000       0.860319        23.4105 
 155   0.0000       0.863633        23.5007 
 156   0.0000       0.877269        23.8717 
 157   0.0000       0.891570        24.2608 
 158   0.0000       0.911296        24.7976 
 159   0.0000       0.923554        25.1312 
 160   0.0000       0.947632        25.7864 
 161   0.0000       0.953104        25.9353 
 162   0.0000       0.970738        26.4151 
 163   0.0000       0.978647        26.6303 
 164   0.0000       1.017238        27.6805 
 165   0.0000       1.024502        27.8781 
 166   0.0000       1.048677        28.5359 
 167   0.0000       1.049304        28.5530 
 168   0.0000       1.064748        28.9733 
 169   0.0000       1.075502        29.2659 
 170   0.0000       1.090966        29.6867 
 171   0.0000       1.103494        30.0276 
 172   0.0000       1.105149        30.0726 
 173   0.0000       1.129492        30.7350 
 174   0.0000       1.135019        30.8854 
 175   0.0000       1.163473        31.6597 
 176   0.0000       1.173135        31.9226 
 177   0.0000       1.205311        32.7982 
 178   0.0000       1.207919        32.8692 
 179   0.0000       1.219552        33.1857 
 180   0.0000       1.256448        34.1897 
 181   0.0000       1.266725        34.4693 
 182   0.0000       1.271713        34.6051 
 183   0.0000       1.287606        35.0375 
 184   0.0000       1.293659        35.2022 
 185   0.0000       1.310691        35.6657 
 186   0.0000       1.322862        35.9969 
 187   0.0000       1.325461        36.0676 
 188   0.0000       1.343903        36.5695 
 189   0.0000       1.369068        37.2542 
 190   0.0000       1.379058        37.5261 
 191   0.0000       1.388429        37.7811 
 192   0.0000       1.394935        37.9581 
 193   0.0000       1.411595        38.4115 
 194   0.0000       1.424309        38.7574 
 195   0.0000       1.433963        39.0201 
 196   0.0000       1.448707        39.4213 
 197   0.0000       1.480470        40.2856 
 198   0.0000       1.484051        40.3831 
 199   0.0000       1.498778        40.7838 
 200   0.0000       1.509205        41.0676 
 201   0.0000       1.516039        41.2535 
 202   0.0000       1.534032        41.7431 
 203   0.0000       1.552221        42.2381 
 204   0.0000       1.571760        42.7698 
 205   0.0000       1.594765        43.3958 
 206   0.0000       1.611557        43.8527 
 207   0.0000       1.640304        44.6349 
 208   0.0000       1.641950        44.6797 
 209   0.0000       1.648091        44.8468 
 210   0.0000       1.664627        45.2968 
 211   0.0000       1.681648        45.7600 
 212   0.0000       1.693656        46.0867 
 213   0.0000       1.723651        46.9029 
 214   0.0000       1.751476        47.6601 
 215   0.0000       1.767159        48.0868 
 216   0.0000       1.799558        48.9685 
 217   0.0000       1.812600        49.3233 
 218   0.0000       1.852626        50.4125 
 219   0.0000       1.874814        51.0163 
 220   0.0000       1.881456        51.1970 
 221   0.0000       1.891941        51.4823 
 222   0.0000       1.906354        51.8745 
 223   0.0000       1.912560        52.0434 
 224   0.0000       1.920863        52.2693 
 225   0.0000       1.976565        53.7851 
 226   0.0000       1.993218        54.2382 
 227   0.0000       1.999874        54.4193 
 228   0.0000       2.015911        54.8557 
 229   0.0000       2.026729        55.1501 
 230   0.0000       2.033821        55.3431 
 231   0.0000       2.053700        55.8840 
 232   0.0000       2.066155        56.2229 
 233   0.0000       2.090286        56.8796 
 234   0.0000       2.132891        58.0389 
 235   0.0000       2.168044        58.9955 
 236   0.0000       2.178038        59.2674 
 237   0.0000       2.186253        59.4910 
 238   0.0000       2.216248        60.3072 
 239   0.0000       2.258661        61.4613 
 240   0.0000       2.265069        61.6357 
 241   0.0000       2.273146        61.8555 
 242   0.0000       2.292206        62.3741 
 243   0.0000       2.319258        63.1102 
 244   0.0000       2.348445        63.9044 
 245   0.0000       2.351565        63.9893 
 246   0.0000       2.364033        64.3286 
 247   0.0000       2.405281        65.4510 
 248   0.0000       2.420189        65.8567 
 249   0.0000       2.470151        67.2162 
 250   0.0000       2.492566        67.8262 
 251   0.0000       2.562341        69.7249 
 252   0.0000       2.585730        70.3613 
 253   0.0000       2.663781        72.4852 
 254   0.0000       2.748281        74.7845 
 255   0.0000       2.756850        75.0177 
 256   0.0000       2.786384        75.8214 
 257   0.0000       2.840000        77.2803 
 258   0.0000       2.842563        77.3501 
 259   0.0000       2.885448        78.5170 
 260   0.0000       2.955868        80.4333 
 261   0.0000       3.031834        82.5004 
 262   0.0000       3.093669        84.1830 
 263   0.0000       3.123049        84.9825 
 264   0.0000       3.247579        88.3711 
 265   0.0000       3.271899        89.0329 
 266   0.0000       3.282615        89.3245 
 267   0.0000       3.291163        89.5571 
 268   0.0000       3.309714        90.0619 
 269   0.0000       3.360135        91.4339 
 270   0.0000       3.385380        92.1209 
 271   0.0000       3.393800        92.3500 
 272   0.0000       3.408649        92.7541 
 273   0.0000       3.458754        94.1175 
 274   0.0000       3.571023        97.1725 
 275   0.0000       3.596596        97.8684 
 276   0.0000       3.774215       102.7016 
 277   0.0000       3.781929       102.9115 
 278   0.0000       3.814441       103.7962 
 279   0.0000       4.106357       111.7397 

                    ********************************
                    * MULLIKEN POPULATION ANALYSIS *
                    ********************************

-----------------------
MULLIKEN ATOMIC CHARGES
-----------------------
   0 C :    0.905625
   1 C :   -1.614268
   2 C :    1.091095
   3 C :    0.879209
   4 C :    1.289974
   5 C :    0.718298
   6 H :   -0.713605
   7 H :   -0.777254
   8 H :   -0.808447
   9 N :    0.698775
  10 O :   -0.663877
  11 O :   -0.677399
  12 N :    0.516412
  13 N :   -0.844537
Sum of atomic charges:    0.0000000

--------------------------------
MULLIKEN REDUCED ORBITAL CHARGES
--------------------------------
  0 C s       :     3.118716  s :     3.118716
      pz      :     0.815364  p :     2.095702
      px      :     0.557805
      py      :     0.722533
      dz2     :     0.012716  d :    -0.120043
      dxz     :    -0.015607
      dyz     :    -0.023644
      dx2y2   :    -0.013894
      dxy     :    -0.079614
  1 C s       :     4.191600  s :     4.191600
      pz      :     0.798602  p :     3.399296
      px      :     1.374610
      py      :     1.226084
      dz2     :     0.012652  d :     0.023372
      dxz     :     0.003154
      dyz     :     0.009614
      dx2y2   :     0.027306
      dxy     :    -0.029355
  2 C s       :     3.261866  s :     3.261866
      pz      :     0.830686  p :     1.579280
      px      :     0.353610
      py      :     0.394983
      dz2     :     0.010602  d :     0.067760
      dxz     :     0.007446
      dyz     :     0.044436
      dx2y2   :    -0.025679
      dxy     :     0.030955
  3 C s       :     3.024528  s :     3.024528
      pz      :     0.850575  p :     2.349034
      px      :     0.836416
      py      :     0.662043
      dz2     :     0.011177  d :    -0.252771
      dxz     :    -0.014928
      dyz     :    -0.035153
      dx2y2   :    -0.104717
      dxy     :    -0.109150
  4 C s       :     2.975734  s :     2.975734
      pz      :     0.842021  p :     2.033497
      px      :     0.522874
      py      :     0.668602
      dz2     :     0.003479  d :    -0.299206
      dxz     :    -0.018933
      dyz     :    -0.038652
      dx2y2   :    -0.122762
      dxy     :    -0.122337
  5 C s       :     3.692461  s :     3.692461
      pz      :     0.737034  p :     1.683971
      px      :     0.636184
      py      :     0.310754
      dz2     :     0.024625  d :    -0.094731
      dxz     :    -0.033576
      dyz     :     0.031590
      dx2y2   :    -0.026902
      dxy     :    -0.090468
  6 H s       :     1.718252  s :     1.718252
      pz      :     0.006891  p :    -0.004646
      px      :    -0.021641
      py      :     0.010104
  7 H s       :     1.785424  s :     1.785424
      pz      :     0.009369  p :    -0.008170
      px      :    -0.023332
      py      :     0.005794
  8 H s       :     1.811929  s :     1.811929
      pz      :     0.008458  p :    -0.003482
      px      :    -0.017420
      py      :     0.005480
  9 N s       :     3.367358  s :     3.367358
      pz      :     0.963218  p :     2.707822
      px      :     0.960732
      py      :     0.783872
      dz2     :     0.043927  d :     0.226046
      dxz     :     0.043685
      dyz     :     0.008570
      dx2y2   :     0.074295
      dxy     :     0.055568
 10 O s       :     4.275692  s :     4.275692
      pz      :     1.400577  p :     4.347317
      px      :     1.625810
      py      :     1.320930
      dz2     :     0.010358  d :     0.040868
      dxz     :     0.006070
      dyz     :     0.009702
      dx2y2   :     0.008620
      dxy     :     0.006117
 11 O s       :     4.271022  s :     4.271022
      pz      :     1.345096  p :     4.366296
      px      :     1.693151
      py      :     1.328049
      dz2     :     0.012320  d :     0.040081
      dxz     :     0.004513
      dyz     :     0.010472
      dx2y2   :     0.007628
      dxy     :     0.005148
 12 N s       :     3.483627  s :     3.483627
      pz      :     1.158836  p :     2.795353
      px      :     0.500688
      py      :     1.135829
      dz2     :     0.012346  d :     0.204608
      dxz     :     0.084061
      dyz     :     0.001166
      dx2y2   :     0.030974
      dxy     :     0.076061
 13 N s       :     4.602792  s :     4.602792
      pz      :     0.996598  p :     3.172935
      px      :     1.253404
      py      :     0.922933
      dz2     :     0.004349  d :     0.068810
      dxz     :     0.027866
      dyz     :     0.000677
      dx2y2   :     0.008033
      dxy     :     0.027884


                     *******************************
                     * LOEWDIN POPULATION ANALYSIS *
                     *******************************

----------------------
LOEWDIN ATOMIC CHARGES
----------------------
   0 C :   -0.016154
   1 C :    0.066831
   2 C :   -0.299978
   3 C :    0.054364
   4 C :    0.056310
   5 C :   -0.121890
   6 H :   -0.013610
   7 H :    0.012668
   8 H :    0.002203
   9 N :   -0.384292
  10 O :    0.150060
  11 O :    0.139207
  12 N :    0.015982
  13 N :    0.338298

-------------------------------
LOEWDIN REDUCED ORBITAL CHARGES
-------------------------------
  0 C s       :     2.635443  s :     2.635443
      pz      :     0.766769  p :     2.663919
      px      :     0.999035
      py      :     0.898115
      dz2     :     0.074570  d :     0.716791
      dxz     :     0.132436
      dyz     :     0.072549
      dx2y2   :     0.179444
      dxy     :     0.257792
  1 C s       :     2.788132  s :     2.788132
      pz      :     0.677911  p :     2.600452
      px      :     0.964605
      py      :     0.957935
      dz2     :     0.067625  d :     0.544586
      dxz     :     0.101884
      dyz     :     0.065167
      dx2y2   :     0.155360
      dxy     :     0.154549
  2 C s       :     2.601912  s :     2.601912
      pz      :     0.880597  p :     2.629980
      px      :     0.751185
      py      :     0.998198
      dz2     :     0.144891  d :     1.068085
      dxz     :     0.130582
      dyz     :     0.180036
      dx2y2   :     0.380781
      dxy     :     0.231794
  3 C s       :     2.616081  s :     2.616081
      pz      :     0.794284  p :     2.647446
      px      :     0.964582
      py      :     0.888579
      dz2     :     0.080822  d :     0.682110
      dxz     :     0.139559
      dyz     :     0.080133
      dx2y2   :     0.165460
      dxy     :     0.216136
  4 C s       :     2.610083  s :     2.610083
      pz      :     0.795201  p :     2.653546
      px      :     0.962665
      py      :     0.895680
      dz2     :     0.070506  d :     0.680062
      dxz     :     0.138763
      dyz     :     0.078583
      dx2y2   :     0.183147
      dxy     :     0.209063
  5 C s       :     2.585924  s :     2.585924
      pz      :     0.821449  p :     2.573430
      px      :     0.800677
      py      :     0.951305
      dz2     :     0.138581  d :     0.962536
      dxz     :     0.137755
      dyz     :     0.159812
      dx2y2   :     0.301874
      dxy     :     0.224513
  6 H s       :     0.730736  s :     0.730736
      pz      :     0.071563  p :     0.282874
      px      :     0.111183
      py      :     0.100128
  7 H s       :     0.733460  s :     0.733460
      pz      :     0.078385  p :     0.253872
      px      :     0.075511
      py      :     0.099975
  8 H s       :     0.718874  s :     0.718874
      pz      :     0.080618  p :     0.278924
      px      :     0.099175
      py      :     0.099130
  9 N s       :     2.804358  s :     2.804358
      pz      :     1.007366  p :     3.164404
      px      :     1.106228
      py      :     1.050810
      dz2     :     0.251504  d :     1.415529
      dxz     :     0.219911
      dyz     :     0.260525
      dx2y2   :     0.372894
      dxy     :     0.310695
 10 O s       :     3.384138  s :     3.384138
      pz      :     1.337879  p :     4.243801
      px      :     1.566961
      py      :     1.338961
      dz2     :     0.034412  d :     0.222001
      dxz     :     0.033838
      dyz     :     0.050553
      dx2y2   :     0.046497
      dxy     :     0.056701
 11 O s       :     3.384750  s :     3.384750
      pz      :     1.313978  p :     4.254737
      px      :     1.597916
      py      :     1.342844
      dz2     :     0.037226  d :     0.221306
      dxz     :     0.035009
      dyz     :     0.056543
      dx2y2   :     0.042345
      dxy     :     0.050183
 12 N s       :     2.938581  s :     2.938581
      pz      :     1.004622  p :     3.292754
      px      :     1.289613
      py      :     0.998519
      dz2     :     0.075816  d :     0.752683
      dxz     :     0.245997
      dyz     :     0.005712
      dx2y2   :     0.205529
      dxy     :     0.219629
 13 N s       :     3.244622  s :     3.244622
      pz      :     0.930414  p :     3.134808
      px      :     1.330974
      py      :     0.873420
      dz2     :     0.034082  d :     0.282271
      dxz     :     0.076856
      dyz     :     0.001322
      dx2y2   :     0.099991
      dxy     :     0.070021


                      *****************************
                      * MAYER POPULATION ANALYSIS *
                      *****************************

  NA   - Mulliken gross atomic population
  ZA   - Total nuclear charge
  QA   - Mulliken gross atomic charge
  VA   - Mayer's total valence
  BVA  - Mayer's bonded valence
  FA   - Mayer's free valence

  ATOM       NA         ZA         QA         VA         BVA        FA
  0 C      5.0944     6.0000     0.9056     2.3145     2.3145    -0.0000
  1 C      7.6143     6.0000    -1.6143     1.8426     1.8426     0.0000
  2 C      4.9089     6.0000     1.0911     2.6067     2.6067    -0.0000
  3 C      5.1208     6.0000     0.8792     2.1470     2.1470    -0.0000
  4 C      4.7100     6.0000     1.2900     1.6852     1.6852    -0.0000
  5 C      5.2817     6.0000     0.7183     1.7340     1.7340     0.0000
  6 H      1.7136     1.0000    -0.7136     0.3419     0.3419    -0.0000
  7 H      1.7773     1.0000    -0.7773     0.2313     0.2313    -0.0000
  8 H      1.8084     1.0000    -0.8084     0.1694     0.1694    -0.0000
  9 N      6.3012     7.0000     0.6988     2.1817     2.1817     0.0000
 10 O      8.6639     8.0000    -0.6639     1.2970     1.2970     0.0000
 11 O      8.6774     8.0000    -0.6774     1.3082     1.3082    -0.0000
 12 N      6.4836     7.0000     0.5164     1.9463     1.9463     0.0000
 13 N      7.8445     7.0000    -0.8445     1.0845     1.0845    -0.0000

  Mayer bond orders larger than 0.1
B(  0-C ,  1-C ) :   1.3956 B(  0-C ,  2-C ) :   0.2271 B(  0-C ,  3-C ) :   0.3200 
B(  0-C ,  4-C ) :  -0.2446 B(  0-C ,  5-C ) :   0.3685 B(  0-C ,  6-H ) :   0.1953 
B(  0-C ,  8-H ) :   0.1297 B(  1-C ,  2-C ) :   0.6538 B(  1-C ,  3-C ) :  -0.2683 
B(  1-C ,  4-C ) :   0.1000 B(  1-C ,  5-C ) :  -0.2201 B(  1-C ,  7-H ) :   0.1195 
B(  2-C ,  3-C ) :   0.9102 B(  2-C ,  4-C ) :  -0.3872 B(  2-C ,  5-C ) :   0.2588 
B(  2-C ,  7-H ) :   0.7918 B(  2-C ,  8-H ) :  -0.1915 B(  2-C , 12-N ) :   0.8055 
B(  2-C , 13-N ) :  -0.4824 B(  3-C ,  4-C ) :   2.0723 B(  3-C ,  5-C ) :  -0.5125 
B(  3-C ,  7-H ) :  -0.6415 B(  3-C ,  8-H ) :   0.2507 B(  3-C , 12-N ) :  -0.1375 
B(  3-C , 13-N ) :   0.1404 B(  4-C ,  5-C ) :   0.4498 B(  4-C ,  7-H ) :   0.2153 
B(  4-C ,  8-H ) :  -0.5742 B(  4-C ,  9-N ) :  -0.1153 B(  5-C ,  7-H ) :  -0.1709 
B(  5-C ,  8-H ) :   0.5454 B(  5-C ,  9-N ) :   0.6100 B(  5-C , 10-O ) :   0.1501 
B(  5-C , 11-O ) :   0.1420 B(  7-H , 12-N ) :  -0.1216 B(  9-N , 10-O ) :   0.9175 
B(  9-N , 11-O ) :   0.9099 B( 10-O , 11-O ) :   0.3068 B( 12-N , 13-N ) :   1.2325 


-------
TIMINGS
-------

Total SCF time: 0 days 0 hours 1 min 1 sec 

Total time                  ....      61.404 sec
Sum of individual times     ....      60.671 sec  ( 98.8%)

Fock matrix formation       ....      49.278 sec  ( 80.3%)
  XC integration            ....       7.371 sec  ( 15.0% of F)
    Basis function eval.    ....       1.640 sec  ( 22.3% of XC)
    Density eval.           ....       1.753 sec  ( 23.8% of XC)
    XC-Functional eval.     ....       0.201 sec  (  2.7% of XC)
    XC-Potential eval.      ....       2.337 sec  ( 31.7% of XC)
Diagonalization             ....       0.224 sec  (  0.4%)
Density matrix formation    ....       0.256 sec  (  0.4%)
Population analysis         ....       0.040 sec  (  0.1%)
Initial guess               ....       0.547 sec  (  0.9%)
Orbital Transformation      ....       0.000 sec  (  0.0%)
Orbital Orthonormalization  ....       0.000 sec  (  0.0%)
DIIS solution               ....       0.607 sec  (  1.0%)
SOSCF solution              ....       0.471 sec  (  0.8%)
Grid generation             ....       9.248 sec  ( 15.1%)

-------------------------   --------------------
FINAL SINGLE POINT ENERGY      -544.976160637037
-------------------------   --------------------



------------------------------------------------------------------------------- 
                         Nudged Elastic Band Calculation                       
------------------------------------------------------------------------------- 

Number of images (incl. end points)     ....  14
Number of intermediate images           ....  12
Number of optimized images              ....  12
Optimization of end points before NEB   ....  NO
Number of atoms                         ....  14
Number of (active) degrees of freedom   ....  42
Constrained atoms                       ....  None

-----------------------------------------
  REACTANT (ANGSTROEM)
-----------------------------------------
C     -1.985786    -0.202535    -0.627646 
C     -0.563780    -0.257837    -0.769304 
C      0.011586     0.877049    -0.190183 
C     -0.568152     1.993828     0.470093 
C     -1.943198     1.971545     0.556743 
C     -2.621196     0.865339    -0.006522 
H     -2.605609    -1.012331    -1.013134 
H      0.023150     2.811682     0.882537 
H     -2.504681     2.766062     1.039233 
N     -4.109237     0.864752     0.098972 
O     -4.724230    -0.005746    -0.504903 
O     -4.628812     1.736649     0.792509 
N      1.416827     0.879993    -0.310536 
N      2.522621     0.814969    -0.438472 

-----------------------------------------
  PRODUCT (ANGSTROEM)
-----------------------------------------
C     -2.465802    -0.345752    -0.703553 
C     -1.086113    -0.329753    -0.799713 
C     -0.316165     0.552727    -0.356898 
C     -0.640180     1.714683     0.328245 
C     -2.037339     1.808941     0.488388 
C     -2.899692     0.811296    -0.012861 
H     -3.164349    -1.090352    -1.073453 
H      0.044982     2.469911     0.705242 
H     -2.474158     2.660529     1.005710 
N     -4.355644     0.978200     0.193022 
O     -5.094168     0.101632    -0.248167 
O     -4.742740     1.978313     0.791547 
N      3.032212     1.665987     0.019852 
N      3.918645     1.127029    -0.357961 



----------------------
NEB settings
----------------------
Method type                             ....  climbing image
Threshold for climbing image            ....  2.00e-02 Eh/Bohr 
Free endpoints                          ....  off 
Tangent type                            ....  improved 
Number of intermediate images           ....  12 
Number of images free to move           ....  12 
Spring type for image distribution      ....  distance between adjacent images 
Spring constant                         ....  1.00e-01 Eh/Bohr^2 
Spring force perp. to the path          ....  tan 
Generation of initial path              ....  image dependent pair potential 
Initial path via TS guess               ....  off 

Minimization of RMSD: Rotation          ....  always 
Minimization of RMSD: Translation type  ....  centroid 
Center fixed to origin                  ....  true 

Reparametrization of the path           ....  on reset 
               Every 0 iterations
               Type of interpolation    ....  linear
Convergence thresholds:
Convergence monitored for               ....  all images
Scaling factor                          ....  100.00

Convergence parameters for regular images:
               Max(|Fp|)                ....  1.00e-01 Eh/Bohr
               RMS(Fp)                  ....  5.00e-02 Eh/Bohr

Convergence parameters for climbing image:
               Max(|F|)                 ....  1.00e-03 Eh/Bohr
               RMS(F)                   ....  5.00e-04 Eh/Bohr
Optimization method:
Method                                  ....  L-BFGS (global)
Max. iterations                         ....  1000 
Step size                               ....  1.00 
Maximum allowed step size               ....  0.10 Bohr
Turn on L-BFGS                          ....  0.0000 Eh/Bohr

LBFGS parameters: 
               Memory                   ....  7 
Generation of  the initial path:
Minimize RMSD between reactant and product configurations     .... done
       RMSD before minimization         ....  1.3590 Bohr
       RMSD after minimization          ....  1.3577 Bohr
Performing linear interpolation         ....  done
Interpolation using                     ....  IDPP (Image Dependent Pair Potential)
IDPP-Settings:
       Convergence tolerance            ....  0.0100 1/Ang.^3
       Max. numer of iterations         ....    7000
       Spring constant                  ....  1.0000 1/Ang.^4
       Time step                        ....  0.0100 fs
       Max. movement per iteration      ....  0.0500 Ang.
       Full print                       ....  false 
IDPP successfuly converged in 83 iterations
Displacement along initial path:              5.0810 Bohr
Writing initial trajectory to file      ....  4-NO2-C6H3-N2-NEB-TS_initial_path.trj



----------------------
NEB OPTIMIZATION      
----------------------

Following output files will be written:
Energy profile during opt. written to    ....  4-NO2-C6H3-N2-NEB-TS.interp
Optimization log-file                    ....  4-NO2-C6H3-N2-NEB-TS.log
Current trajectory will be written to    ....  4-NO2-C6H3-N2-NEB-TS_MEP.trj
       and to allxyz file                ....  4-NO2-C6H3-N2-NEB-TS_MEP.allxyz
       and individual images to xyz file ....  4-NO2-C6H3-N2-NEB-TS_im{NIm}.xyz
Trajectory history will be written to    ....  4-NO2-C6H3-N2-NEB-TS_MEP_ALL.trj
Converged CI will be written to          ....  4-NO2-C6H3-N2-NEB-TS_CI-NEB_converged.xyz
Converged TS will be written to          ....  4-NO2-C6H3-N2-NEB-TS.xyz

Single point energy and gradient calculation of reactant and
product configurations (have to be performed only once)
Properties of fixed NEB end points:
               Reactant:
                         E               ....   -544.976161 Eh
                         RMS(F)          ....      0.000180 Eh/Bohr
                         MAX(|F|)        ....      0.000840 Eh/Bohr
               Product:
                         E               ....   -545.014568 Eh
                         RMS(F)          ....      0.000197 Eh/Bohr
                         MAX(|F|)        ....      0.000755 Eh/Bohr



Starting iterations:

Optim.  Iteration  HEI  E(HEI)-E(0)  max(|Fp|)   RMS(Fp)    dS
Switch-on CI threshold               0.020000 
List of participating nodes    ...  4-NO2-C6H3-N2-NEB-TS.hostnames
LBFGS(G)     0      2    0.008026    0.084792   0.024748  5.0810       
LBFGS(G)     1      2    0.008018    0.084738   0.024720  5.0810       
LBFGS(G)     2      1    0.004082    0.030094   0.009268  5.0944       
LBFGS(G)     3      1    0.004101    0.037897   0.011397  5.1067       
LBFGS(G)     4      1    0.003881    0.014666   0.005958  5.1085       

Image  1 will be converted to a climbing image in the next iteration (max(|Fp|) < 0.0200) 

Optim.  Iteration  CI   E(CI)-E(0)   max(|Fp|)   RMS(Fp)    dS     max(|FCI|)   RMS(FCI)
Convergence thresholds               0.100000   0.050000            0.001000    0.000500 
LBFGS(G)     5      1    0.003836    0.015865   0.005605  5.1105    0.015645    0.005022       
LBFGS(G)     6      1    0.003819    0.013544   0.004301  5.1136    0.013120    0.004175       
LBFGS(G)     7      1    0.003855    0.011797   0.004619  5.1473    0.010341    0.003401       
LBFGS(G)     8      1    0.003887    0.015710   0.004278  5.1851    0.007021    0.002807       
LBFGS(G)     9      1    0.004830    0.027929   0.004747  5.2540    0.050102    0.019139       
LBFGS(G)    10      1    0.003822    0.012954   0.002817  5.2387    0.003090    0.001738       
LBFGS(G)    11      1    0.003844    0.008805   0.002468  5.2318    0.014016    0.005405       
LBFGS(G)    12      1    0.003751    0.021589   0.003669  5.2415    0.019375    0.007142       
LBFGS(G)    13      1    0.003464    0.045068   0.008415  5.2794    0.012895    0.004818       
LBFGS(G)    14      1    0.003497    0.008449   0.002893  5.2685    0.013661    0.004621       
LBFGS(G)    15      1    0.003433    0.009799   0.002764  5.2744    0.007827    0.002761       
LBFGS(G)    16      1    0.003278    0.018511   0.003892  5.3316    0.008848    0.003236       
LBFGS(G)    17      1    0.003250    0.020117   0.005146  5.4372    0.019259    0.006669       
LBFGS(G)    18      1    0.003134    0.035036   0.006583  5.5801    0.007381    0.003321       
LBFGS(G)    19      1    0.003152    0.022609   0.006403  5.7588    0.009573    0.003671       
LBFGS(G)    20      1    0.005845    0.173111   0.033891  5.7121    0.080517    0.030743       
LBFGS(G)    21      1    0.003165    0.024095   0.005096  5.6759    0.017269    0.005539       
LBFGS(G)    22      1    0.003101    0.009849   0.002948  5.6661    0.008707    0.002745       
LBFGS(G)    23      1    0.003093    0.005014   0.001808  5.6483    0.004543    0.001905       
LBFGS(G)    24      1    0.003101    0.011208   0.002377  5.6364    0.005453    0.002082       
LBFGS(G)    25      1    0.003095    0.027780   0.004265  5.6370    0.004753    0.002140       
LBFGS(G)    26      1    0.003076    0.008170   0.002299  5.6380    0.002739    0.001484       
LBFGS(G)    27      1    0.003057    0.016227   0.002343  5.6382    0.002814    0.001359       
LBFGS(G)    28      1    0.003038    0.015878   0.002277  5.6433    0.001625    0.000961       
LBFGS(G)    29      1    0.003031    0.019629   0.002745  5.6501    0.004426    0.001919       
LBFGS(G)    30      1    0.003017    0.006283   0.001636  5.6519    0.001256    0.000826       
LBFGS(G)    31      1    0.003005    0.008795   0.001953  5.6609    0.004312    0.001724       
LBFGS(G)    32      1    0.002980    0.012368   0.002044  5.6744    0.004043    0.001543       
LBFGS(G)    33      1    0.002943    0.013453   0.003232  5.7885    0.010783    0.003765       
LBFGS(G)    34      1    0.003344    0.071876   0.011270  5.8862    0.036876    0.013863       
LBFGS(G)    35      1    0.002916    0.014984   0.002829  5.8190    0.008622    0.002863       
LBFGS(G)    36      1    0.002905    0.007471   0.001978  5.8256    0.007101    0.002299       
LBFGS(G)    37      1    0.002884    0.005033   0.001308  5.8777    0.005415    0.001756       
LBFGS(G)    38      1    0.002931    0.029282   0.003478  5.9686    0.014349    0.005252       
LBFGS(G)    39      1    0.002862    0.004493   0.001691  6.0245    0.003115    0.001240       
LBFGS(G)    40      1    0.002859    0.007057   0.001937  6.0698    0.004830    0.001739       
LBFGS(G)    41      1    0.002847    0.017641   0.002648  6.2155    0.007273    0.002737       
LBFGS(G)    42      1    0.003032    0.090485   0.010471  6.4580    0.024295    0.009443       
LBFGS(G)    43      1    0.002808    0.015894   0.002656  6.4566    0.005385    0.001918       
LBFGS(G)    44      1    0.002799    0.006109   0.001688  6.4505    0.001654    0.000817       
LBFGS(G)    45      1    0.002799    0.014454   0.001925  6.4336    0.003426    0.001475       
LBFGS(G)    46      1    0.002801    0.019808   0.002825  6.3756    0.007049    0.002737       
LBFGS(G)    47      1    0.002831    0.052696   0.004992  6.3636    0.011712    0.004403       
LBFGS(G)    48      1    0.002823    0.034702   0.003896  6.3760    0.010754    0.003998       
LBFGS(G)    49      1    0.002788    0.013212   0.001612  6.3848    0.003360    0.001334       
LBFGS(G)    50      1    0.002783    0.004535   0.000899  6.3747    0.002278    0.000782       
LBFGS(G)    51      1    0.002783    0.007285   0.001141  6.3652    0.003131    0.001033       
LBFGS(G)    52      1    0.002781    0.007894   0.001262  6.3393    0.003140    0.001017       
LBFGS(G)    53      1    0.002819    0.036786   0.007449  6.2917    0.010454    0.003907       
LBFGS(G)    54      1    0.002781    0.008022   0.001416  6.3036    0.002542    0.000871       
LBFGS(G)    55      1    0.002781    0.003550   0.000953  6.3000    0.001602    0.000564       
LBFGS(G)    56      1    0.002786    0.004235   0.001175  6.2819    0.001933    0.000598       
LBFGS(G)    57      1    0.002796    0.007529   0.001011  6.2717    0.001135    0.000413       
LBFGS(G)    58      1    0.002823    0.027886   0.005264  6.3045    0.001371    0.000807       
LBFGS(G)    59      1    0.002819    0.005261   0.001042  6.2940    0.000944    0.000520       
LBFGS(G)    60      1    0.002817    0.002320   0.000713  6.2913    0.000901    0.000502       
LBFGS(G)    61      1    0.002813    0.008724   0.001117  6.2854    0.000812    0.000472       

                                .--------------------.
          ----------------------| CI-NEB convergence |-------------------------
          Item                value                   Tolerance       Converged
          ---------------------------------------------------------------------
          RMS(Fp)             0.0011170778            0.0500000000      YES
          MAX(|Fp|)           0.0087242598            0.1000000000      YES
          RMS(FCI)            0.0004718490            0.0005000000      YES
          MAX(|FCI|)          0.0008124471            0.0010000000      YES
          ---------------------------------------------------------------------

The elastic band and climbing image have converged succesfully to a MEP in 61 iterations!


                    *********************H U R R A Y*********************
                    ***        THE NEB OPTIMIZATION HAS CONVERGED     ***
                    *****************************************************



---------------------------------------------------------------
                         PATH SUMMARY              
---------------------------------------------------------------
All forces in Eh/Bohr.

Image Dist.(Ang.)    E(Eh)   dE(kcal/mol)  max(|Fp|)  RMS(Fp)
  0     0.000    -544.97616      0.00       0.00076   0.00030
  1     0.249    -544.97335      1.77       0.00074   0.00047 <= CI
  2     0.516    -544.98184     -3.56       0.00686   0.00259
  3     0.788    -544.99459    -11.56       0.00166   0.00103
  4     1.050    -545.00318    -16.96       0.00150   0.00123
  5     1.310    -545.00827    -20.15       0.00151   0.00094
  6     1.554    -545.01119    -21.98       0.00127   0.00055
  7     1.794    -545.01270    -22.93       0.00219   0.00094
  8     2.051    -545.01327    -23.29       0.00123   0.00057
  9     2.303    -545.01365    -23.53       0.00123   0.00047
 10     2.558    -545.01400    -23.75       0.00097   0.00035
 11     2.812    -545.01431    -23.94       0.00251   0.00115
 12     3.068    -545.01451    -24.07       0.00249   0.00112
 13     3.326    -545.01457    -24.10       0.00076   0.00034

Straight line distance between images along the path:
        D( 0- 1) =   0.2493 Ang.
        D( 1- 2) =   0.2672 Ang.
        D( 2- 3) =   0.2718 Ang.
        D( 3- 4) =   0.2618 Ang.
        D( 4- 5) =   0.2600 Ang.
        D( 5- 6) =   0.2436 Ang.
        D( 6- 7) =   0.2403 Ang.
        D( 7- 8) =   0.2573 Ang.
        D( 8- 9) =   0.2522 Ang.
        D( 9-10) =   0.2547 Ang.
        D(10-11) =   0.2535 Ang.
        D(11-12) =   0.2561 Ang.
        D(12-13) =   0.2583 Ang.

---------------------------------------------------------------
               INFORMATION ABOUT SADDLE POINT     
---------------------------------------------------------------

Climbing image                            ....  1 
Energy                                    ....  -544.97334772 Eh
Max. abs. force                           ....  8.1245e-04 Eh/Bohr

-----------------------------------------
  SADDLE POINT (ANGSTROEM)
-----------------------------------------
C     -0.398407    -1.203312    -0.630878 
C      1.019869    -1.208609    -0.740735 
C      1.540790    -0.110223    -0.174185 
C      1.007098     1.002464     0.481255 
C     -0.376851     0.967939     0.566393 
C     -1.044869    -0.138384     0.001039 
H     -1.006325    -2.016356    -1.028340 
H      1.606082     1.817095     0.887309 
H     -0.942503     1.759244     1.049327 
N     -2.526588    -0.153533     0.100887 
O     -3.129168    -1.043381    -0.489237 
O     -3.062051     0.726694     0.771702 
N      3.128456    -0.069063    -0.283550 
N      4.184467    -0.330575    -0.510987 

-----------------------------------------
  FORCES (Eh/Bohr)
-----------------------------------------
C      0.000161     0.000270     0.000092 
C      0.000261     0.000089     0.000005 
C      0.000812     0.000130     0.000025 
C      0.000181     0.000105     0.000016 
C      0.000064    -0.000053     0.000009 
C     -0.000164     0.000020     0.000053 
H      0.000365     0.000210     0.000019 
H     -0.000184     0.000337     0.000193 
H     -0.000150    -0.000120    -0.000047 
N     -0.000511    -0.000055     0.000017 
O     -0.000529    -0.000109     0.000099 
O     -0.000505     0.000012    -0.000042 
N     -0.000232    -0.000741    -0.000389 
N      0.000431    -0.000094    -0.000050 

-----------------------------------------
  UNIT TANGENT
-----------------------------------------
C     -0.039797     0.008294    -0.021029 
C     -0.062078     0.205031     0.102541 
C     -0.278938     0.058133     0.049789 
C     -0.059780     0.054466     0.033494 
C     -0.094094     0.006962     0.024928 
C     -0.065548     0.009621     0.020298 
H      0.006476    -0.000994    -0.060868 
H     -0.029581     0.040044     0.009764 
H     -0.103519    -0.001740     0.027344 
N     -0.037729    -0.035380     0.002497 
O      0.001931    -0.099694     0.048633 
O     -0.089946    -0.007291    -0.073394 
N      0.544103     0.258431     0.107980 
N      0.308499    -0.495883    -0.271979 
 => Unit tangent is an approximation to the TS mode at the saddle point

Next a TS optimization is performed on the CI from the NEB run.

         *************************************************************
         *                       TS OPTIMIZATION                     *
         *************************************************************

Geometry optimization settings:
Update method            Update   .... Bofill
Choice of coordinates    CoordSys .... Z-matrix Internals
Initial Hessian          InHess   .... Read

Convergence Tolerances:
Energy Change            TolE     ....  1.0000e-06 Eh
Max. Gradient            TolMAXG  ....  1.0000e-04 Eh/bohr
RMS Gradient             TolRMSG  ....  3.0000e-05 Eh/bohr
Max. Displacement        TolMAXD  ....  1.0000e-03 bohr
RMS Displacement         TolRMSD  ....  6.0000e-04 bohr

------------------------------------------------------------------------------
                        ORCA OPTIMIZATION COORDINATE SETUP
------------------------------------------------------------------------------

The optimization will be done in new redundant internal coordinates
Making redundant internal coordinates   ...  (new redundants) done
Following TS mode number                ...     0
TS-active-atoms for coordinate setup... 12 13 
Evaluating the initial hessian          ... (Reading Exact Hessian)...  
InHessName: 4-NO2-C6H3-N2-NEB-TS.appr.hess	The file <4-NO2-C6H3-N2-NEB-TS.appr.hess> is opened as a .hess file
done
done
Diagonalizing the Hessian               .... done
Dimension of the hessian                .... 63
Lowest eigenvalues of the non projected Hessian:
 -0.016625634 -0.000000000 -0.000000000 -0.000000000 -0.000000000
done
Evaluating the coordinates              ...  done
Calculating the B-matrix                .... done
Calculating the G-matrix                .... done
Diagonalizing the G-matrix              .... done
The first mode is                       ....   27
The number of degrees of freedom        ....   36

    -----------------------------------------------------------------
                    Redundant Internal Coordinates


    -----------------------------------------------------------------
         Definition                    Initial Value    d2E/dq (diagonal element)
    -----------------------------------------------------------------
      1. B(C   1,C   0)                  1.4225         0.507581   
      2. B(C   2,C   1)                  1.3412         0.398857   
      3. B(C   3,C   2)                  1.3973         0.370860   
      4. B(C   4,C   3)                  1.3870         0.723191   
      5. B(C   5,C   4)                  1.4106         0.553650   
      6. B(C   5,C   0)                  1.3969         0.589162   
      7. B(H   6,C   0)                  1.0902         0.359998   
      8. B(H   7,C   3)                  1.0896         0.359939   
      9. B(H   8,C   4)                  1.0860         0.367724   
     10. B(N   9,C   5)                  1.4852         0.396145   
     11. B(O  10,N   9)                  1.2260         0.919954   
     12. B(O  11,N   9)                  1.2294         0.903316   
     13. B(N  12,C   1)                  2.4400         0.121375   
     14. B(N  12,C   2)                  1.5920         0.122239   
     15. B(N  12,C   3)                  2.4966         0.260623   
     16. B(N  13,N  12)                  1.1114         0.661837   
     17. B(N  13,C   2)                  2.6741         0.286669   
     18. A(C   5,C   0,H   6)          118.3856         0.216698   
     19. A(C   1,C   0,H   6)          121.6689         0.215785   
     20. A(C   1,C   0,C   5)          119.9454         0.163873   
     21. A(C   0,C   1,C   2)          110.5832         0.223061   
     22. A(C   1,C   2,N  12)          112.3032         0.122284   
     23. A(C   3,C   2,N  12)          113.1130         0.226035   
     24. A(C   1,C   2,C   3)          134.5831         0.173813   
     25. A(C   2,C   3,C   4)          112.9590         0.147523   
     26. A(C   4,C   3,H   7)          122.9730         0.215662   
     27. A(C   2,C   3,H   7)          124.0680         0.210711   
     28. A(C   5,C   4,H   8)          120.2012         0.222555   
     29. A(C   3,C   4,H   8)          121.9301         0.218006   
     30. A(C   3,C   4,C   5)          117.8688         0.158119   
     31. A(C   4,C   5,N   9)          116.9701         0.311303   
     32. A(C   0,C   5,N   9)          118.9700         0.276589   
     33. A(C   0,C   5,C   4)          124.0593         0.167179   
     34. A(C   5,N   9,O  10)          117.7354         0.293718   
     35. A(O  10,N   9,O  11)          124.6249         0.311215   
     36. A(C   5,N   9,O  11)          117.6395         0.300766   
     37. A(C   2,N  12,N  13)          162.8525         0.415356   
     38. D(C   2,C   1,C   0,H   6)   -179.7224         0.011004   
     39. D(C   2,C   1,C   0,C   5)      0.1735         0.008041   
     40. D(C   3,C   2,C   1,C   0)      0.0748         0.007397   
     41. D(N  12,C   2,C   1,C   0)   -179.5799         0.029752   
     42. D(H   7,C   3,C   2,C   1)    179.8782         0.008374   
     43. D(C   4,C   3,C   2,C   1)     -0.0815         0.008458   
     44. D(C   4,C   3,C   2,N  12)    179.5710         0.022429   
     45. D(H   7,C   3,C   2,N  12)     -0.4692         0.022659   
     46. D(H   8,C   4,C   3,H   7)     -0.1118         0.012018   
     47. D(H   8,C   4,C   3,C   2)    179.8485         0.009613   
     48. D(C   5,C   4,C   3,H   7)    179.8818         0.010755   
     49. D(C   5,C   4,C   3,C   2)     -0.1579         0.009273   
     50. D(N   9,C   5,C   0,C   1)    179.8612         0.009593   
     51. D(C   4,C   5,C   0,H   6)    179.4747         0.010284   
     52. D(C   4,C   5,C   0,C   1)     -0.4246         0.008962   
     53. D(N   9,C   5,C   4,H   8)      0.1238         0.009664   
     54. D(N   9,C   5,C   4,C   3)   -179.8699         0.010988   
     55. D(C   0,C   5,C   4,H   8)   -179.5957         0.008281   
     56. D(C   0,C   5,C   4,C   3)      0.4106         0.009512   
     57. D(N   9,C   5,C   0,H   6)     -0.2395         0.011665   
     58. D(O  11,N   9,C   5,C   4)     -6.5804         0.009955   
     59. D(O  11,N   9,C   5,C   0)    173.1539         0.009569   
     60. D(O  10,N   9,C   5,C   4)    173.5292         0.014230   
     61. D(O  10,N   9,C   5,C   0)     -6.7365         0.012818   
     62. D(N  13,N  12,C   2,C   3)    179.3946         0.085582   
     63. D(N  13,N  12,C   2,C   1)     -0.8728         0.145131   
    -----------------------------------------------------------------

Number of atoms                         .... 14
Number of degrees of freedom            .... 63

         *************************************************************
         *                GEOMETRY OPTIMIZATION CYCLE   1            *
         *************************************************************


           ************************************************************
           *        Program running with 42 parallel MPI-processes    *
           *            working without local directories             *
           ************************************************************
------------------------------------------------------------------------------
                           ORCA GTO INTEGRAL CALCULATION
------------------------------------------------------------------------------

                         BASIS SET STATISTICS AND STARTUP INFO

 # of primitive gaussian shells          ...  296
 # of primitive gaussian functions       ...  506
 # of contracted shells                  ...  114
 # of contracted basis functions         ...  280
 Highest angular momentum                ...    2
 Maximum contraction depth               ...    8
 Integral package used                   ... LIBINT
 Integral threshhold            Thresh   ...  2.500e-11
 Primitive cut-off              TCut     ...  2.500e-12


------------------------------ INTEGRAL EVALUATION ----------------------------


 * One electron integrals 
 Pre-screening matrix                    ... done
 Shell pair data                         ... done (   0.003 sec)



           ************************************************************
           *        Program running with 42 parallel MPI-processes    *
           *            working without local directories             *
           ************************************************************
-------------------------------------------------------------------------------
                                 ORCA SCF
-------------------------------------------------------------------------------

------------
SCF SETTINGS
------------
Hamiltonian:
 Density Functional     Method          .... DFT(GTOs)
 Exchange Functional    Exchange        .... B88
   X-Alpha parameter    XAlpha          ....  0.666667
   Becke's b parameter  XBeta           ....  0.004200
 Correlation Functional Correlation     .... LYP
 LDA part of GGA corr.  LDAOpt          .... VWN-3
 Gradients option       PostSCFGGA      .... off
 Hybrid DFT is turned on
   Fraction HF Exchange ScalHFX         ....  0.200000
   Scaling of DF-GGA-X  ScalDFX         ....  0.720000
   Scaling of DF-GGA-C  ScalDFC         ....  0.810000
   Scaling of DF-LDA-C  ScalLDAC        ....  1.000000
   Perturbative correction              ....  0.000000
   Density functional embedding theory  .... OFF
   NL short-range parameter             ....  4.800000


General Settings:
 Integral files         IntName         .... 4-NO2-C6H3-N2-NEB-TS
 Hartree-Fock type      HFTyp           .... RHF
 Total Charge           Charge          ....    0
 Multiplicity           Mult            ....    1
 Number of Electrons    NEL             ....   76
 Basis Dimension        Dim             ....  280
 Nuclear Repulsion      ENuc            ....    528.0731207977 Eh

Convergence Acceleration:
 DIIS                   CNVDIIS         .... on
   Start iteration      DIISMaxIt       ....    12
   Startup error        DIISStart       ....  0.200000
   # of expansion vecs  DIISMaxEq       ....     5
   Bias factor          DIISBfac        ....   1.050
   Max. coefficient     DIISMaxC        ....  10.000
 Newton-Raphson         CNVNR           .... off
 SOSCF                  CNVSOSCF        .... on
   Start iteration      SOSCFMaxIt      ....   150
   Startup grad/error   SOSCFStart      ....  0.003300
 Level Shifting         CNVShift        .... on
   Level shift para.    LevelShift      ....    0.2500
   Turn off err/grad.   ShiftErr        ....    0.0010
 Zerner damping         CNVZerner       .... off
 Static damping         CNVDamp         .... on
   Fraction old density DampFac         ....    0.7000
   Max. Damping (<1)    DampMax         ....    0.9800
   Min. Damping (>=0)   DampMin         ....    0.0000
   Turn off err/grad.   DampErr         ....    0.1000
 Fernandez-Rico         CNVRico         .... off

SCF Procedure:
 Maximum # iterations   MaxIter         ....  1000
 SCF integral mode      SCFMode         .... Direct
   Integral package                     .... LIBINT
 Reset frequency        DirectResetFreq ....    20
 Integral Threshold     Thresh          ....  2.500e-11 Eh
 Primitive CutOff       TCut            ....  2.500e-12 Eh

Convergence Tolerance:
 Convergence Check Mode ConvCheckMode   .... Total+1el-Energy
 Convergence forced     ConvForced      .... 0
 Energy Change          TolE            ....  1.000e-08 Eh
 1-El. energy change                    ....  1.000e-05 Eh
 Orbital Gradient       TolG            ....  1.000e-05
[...]

Components:
Nuclear Repulsion  :          527.73014924 Eh           14360.26742 eV
Electronic Energy  :        -1072.70354552 Eh          -29189.74745 eV
One Electron Energy:        -1784.93146846 Eh          -48570.45453 eV
Two Electron Energy:          712.22792294 Eh           19380.70708 eV

Virial components:
Potential Energy   :        -1086.66665193 Eh          -29569.70289 eV
Kinetic Energy     :          541.69325564 Eh           14740.22286 eV
Virial Ratio       :            2.00605535


DFT components:
N(Alpha)           :       37.999999269185 electrons
N(Beta)            :       37.999999269185 electrons
N(Total)           :       75.999998538369 electrons
E(X)               :      -54.267386952232 Eh       
E(C)               :       -3.402266569806 Eh       
E(XC)              :      -57.669653522039 Eh       
DFET-embed. en.    :        0.000000000000 Eh       

---------------
SCF CONVERGENCE
---------------

  Last Energy change         ...   -9.2541e-10  Tolerance :   1.0000e-08
  Last MAX-Density change    ...    1.1098e-02  Tolerance :   1.0000e-07
  Last RMS-Density change    ...    1.2070e-04  Tolerance :   5.0000e-09
  Last Orbital Gradient      ...    2.1295e-06  Tolerance :   1.0000e-05
  Last Orbital Rotation      ...    4.9000e-06  Tolerance :   1.0000e-05

             **** THE GBW FILE WAS UPDATED (4-NO2-C6H3-N2-NEB-TS.gbw) ****
             **** DENSITY FILE WAS UPDATED (4-NO2-C6H3-N2-NEB-TS.scfp.tmp) ****
             **** ENERGY FILE WAS UPDATED (4-NO2-C6H3-N2-NEB-TS.en.tmp) ****
----------------
ORBITAL ENERGIES
----------------

  NO   OCC          E(Eh)            E(eV) 
   0   2.0000     -19.192979      -522.2675 
   1   2.0000     -19.192899      -522.2653 
   2   2.0000     -14.579552      -396.7298 
   3   2.0000     -14.542396      -395.7187 
   4   2.0000     -14.517609      -395.0442 
   5   2.0000     -10.292471      -280.0724 
   6   2.0000     -10.269407      -279.4448 
   7   2.0000     -10.248373      -278.8724 
   8   2.0000     -10.235903      -278.5331 
   9   2.0000     -10.230225      -278.3786 
  10   2.0000     -10.187509      -277.2162 
  11   2.0000      -1.242619       -33.8134 
  12   2.0000      -1.205691       -32.8085 
  13   2.0000      -1.070066       -29.1180 
  14   2.0000      -0.917622       -24.9698 
  15   2.0000      -0.846114       -23.0239 
  16   2.0000      -0.790108       -21.4999 
  17   2.0000      -0.755693       -20.5634 
  18   2.0000      -0.662052       -18.0154 
  19   2.0000      -0.649970       -17.6866 
  20   2.0000      -0.586676       -15.9643 
  21   2.0000      -0.570089       -15.5129 
  22   2.0000      -0.549695       -14.9580 
  23   2.0000      -0.548727       -14.9316 
  24   2.0000      -0.546148       -14.8615 
  25   2.0000      -0.535703       -14.5772 
  26   2.0000      -0.526062       -14.3149 
  27   2.0000      -0.488762       -13.2999 
  28   2.0000      -0.476998       -12.9798 
  29   2.0000      -0.443243       -12.0613 
  30   2.0000      -0.411806       -11.2058 
  31   2.0000      -0.408245       -11.1089 
  32   2.0000      -0.328088        -8.9277 
  33   2.0000      -0.326675        -8.8893 
  34   2.0000      -0.309414        -8.4196 
  35   2.0000      -0.307336        -8.3630 
  36   2.0000      -0.286718        -7.8020 
  37   2.0000      -0.231244        -6.2925 
  38   0.0000      -0.128877        -3.5069 
  39   0.0000      -0.121581        -3.3084 
  40   0.0000      -0.089366        -2.4318 
  41   0.0000      -0.048492        -1.3195 
  42   0.0000      -0.025654        -0.6981 
  43   0.0000      -0.004853        -0.1321 
  44   0.0000       0.004962         0.1350 
  45   0.0000       0.010045         0.2733 
  46   0.0000       0.021229         0.5777 
  47   0.0000       0.032386         0.8813 
  48   0.0000       0.034614         0.9419 
  49   0.0000       0.045587         1.2405 
  50   0.0000       0.052545         1.4298 
  51   0.0000       0.065076         1.7708 
  52   0.0000       0.066279         1.8035 
  53   0.0000       0.073640         2.0039 
  54   0.0000       0.074223         2.0197 
  55   0.0000       0.082093         2.2339 
  56   0.0000       0.092230         2.5097 
  57   0.0000       0.097368         2.6495 
  58   0.0000       0.102071         2.7775 
  59   0.0000       0.105309         2.8656 
  60   0.0000       0.114119         3.1053 
  61   0.0000       0.118045         3.2122 
  62   0.0000       0.118988         3.2378 
  63   0.0000       0.123209         3.3527 
  64   0.0000       0.125844         3.4244 
  65   0.0000       0.130608         3.5540 
  66   0.0000       0.133854         3.6423 
  67   0.0000       0.143961         3.9174 
  68   0.0000       0.155748         4.2381 
  69   0.0000       0.162896         4.4326 
  70   0.0000       0.170626         4.6430 
  71   0.0000       0.174147         4.7388 
  72   0.0000       0.177029         4.8172 
  73   0.0000       0.185881         5.0581 
  74   0.0000       0.191558         5.2126 
  75   0.0000       0.195081         5.3084 
  76   0.0000       0.205349         5.5878 
  77   0.0000       0.211960         5.7677 
  78   0.0000       0.220651         6.0042 
  79   0.0000       0.221504         6.0274 
  80   0.0000       0.225197         6.1279 
  81   0.0000       0.232055         6.3145 
  82   0.0000       0.235279         6.4023 
  83   0.0000       0.246578         6.7097 
  84   0.0000       0.255604         6.9553 
  85   0.0000       0.263850         7.1797 
  86   0.0000       0.267339         7.2747 
  87   0.0000       0.271289         7.3821 
  88   0.0000       0.272505         7.4152 
  89   0.0000       0.279526         7.6063 
  90   0.0000       0.287442         7.8217 
  91   0.0000       0.291707         7.9378 
  92   0.0000       0.293623         7.9899 
  93   0.0000       0.296937         8.0801 
  94   0.0000       0.302251         8.2247 
  95   0.0000       0.320679         8.7261 
  96   0.0000       0.321870         8.7585 
  97   0.0000       0.323923         8.8144 
  98   0.0000       0.343255         9.3404 
  99   0.0000       0.356444         9.6993 
 100   0.0000       0.359369         9.7789 
 101   0.0000       0.366247         9.9661 
 102   0.0000       0.370795        10.0898 
 103   0.0000       0.371710        10.1147 
 104   0.0000       0.392561        10.6821 
 105   0.0000       0.403380        10.9765 
 106   0.0000       0.420994        11.4558 
 107   0.0000       0.429205        11.6793 
 108   0.0000       0.437784        11.9127 
 109   0.0000       0.447094        12.1661 
 110   0.0000       0.453088        12.3292 
 111   0.0000       0.458019        12.4633 
 112   0.0000       0.477016        12.9803 
 113   0.0000       0.482144        13.1198 
 114   0.0000       0.495435        13.4815 
 115   0.0000       0.501358        13.6427 
 116   0.0000       0.510102        13.8806 
 117   0.0000       0.524525        14.2730 
 118   0.0000       0.535524        14.5724 
 119   0.0000       0.543523        14.7900 
 120   0.0000       0.548719        14.9314 
 121   0.0000       0.553655        15.0657 
 122   0.0000       0.555741        15.1225 
 123   0.0000       0.566833        15.4243 
 124   0.0000       0.591017        16.0824 
 125   0.0000       0.591697        16.1009 
 126   0.0000       0.593160        16.1407 
 127   0.0000       0.602211        16.3870 
 128   0.0000       0.611134        16.6298 
 129   0.0000       0.614236        16.7142 
 130   0.0000       0.633208        17.2305 
 131   0.0000       0.637403        17.3446 
 132   0.0000       0.655389        17.8340 
 133   0.0000       0.656558        17.8658 
 134   0.0000       0.668578        18.1929 
 135   0.0000       0.689512        18.7626 
 136   0.0000       0.697757        18.9869 
 137   0.0000       0.701279        19.0828 
 138   0.0000       0.705294        19.1920 
 139   0.0000       0.713299        19.4098 
 140   0.0000       0.717439        19.5225 
 141   0.0000       0.722614        19.6633 
 142   0.0000       0.729255        19.8440 
 143   0.0000       0.731104        19.8944 
 144   0.0000       0.748515        20.3681 
 145   0.0000       0.749765        20.4021 
 146   0.0000       0.758880        20.6502 
 147   0.0000       0.762063        20.7368 
 148   0.0000       0.776412        21.1272 
 149   0.0000       0.799188        21.7470 
 150   0.0000       0.811427        22.0801 
 151   0.0000       0.824812        22.4443 
 152   0.0000       0.830639        22.6028 
 153   0.0000       0.834803        22.7161 
 154   0.0000       0.856032        23.2938 
 155   0.0000       0.867855        23.6155 
 156   0.0000       0.870364        23.6838 
 157   0.0000       0.878152        23.8957 
 158   0.0000       0.908546        24.7228 
 159   0.0000       0.920459        25.0470 
 160   0.0000       0.923559        25.1313 
 161   0.0000       0.935932        25.4680 
 162   0.0000       0.958074        26.0705 
 163   0.0000       0.985906        26.8279 
 164   0.0000       1.026914        27.9437 
 165   0.0000       1.031625        28.0719 
 166   0.0000       1.050999        28.5991 
 167   0.0000       1.052490        28.6397 
 168   0.0000       1.064492        28.9663 
 169   0.0000       1.084418        29.5085 
 170   0.0000       1.085218        29.5303 
 171   0.0000       1.090586        29.6764 
 172   0.0000       1.100288        29.9404 
 173   0.0000       1.117495        30.4086 
 174   0.0000       1.143211        31.1084 
 175   0.0000       1.161594        31.6086 
 176   0.0000       1.187560        32.3151 
 177   0.0000       1.202865        32.7316 
 178   0.0000       1.208777        32.8925 
 179   0.0000       1.226620        33.3780 
 180   0.0000       1.240878        33.7660 
 181   0.0000       1.259199        34.2646 
 182   0.0000       1.276398        34.7326 
 183   0.0000       1.279344        34.8127 
 184   0.0000       1.293094        35.1869 
 185   0.0000       1.296191        35.2711 
 186   0.0000       1.301482        35.4151 
 187   0.0000       1.321469        35.9590 
 188   0.0000       1.340655        36.4811 
 189   0.0000       1.361691        37.0535 
 190   0.0000       1.380944        37.5774 
 191   0.0000       1.385721        37.7074 
 192   0.0000       1.401174        38.1279 
 193   0.0000       1.413911        38.4745 
 194   0.0000       1.423122        38.7251 
 195   0.0000       1.438978        39.1566 
 196   0.0000       1.449675        39.4477 
 197   0.0000       1.468442        39.9583 
 198   0.0000       1.479921        40.2707 
 199   0.0000       1.482466        40.3399 
 200   0.0000       1.499453        40.8022 
 201   0.0000       1.516147        41.2565 
 202   0.0000       1.526820        41.5469 
 203   0.0000       1.557691        42.3869 
 204   0.0000       1.567922        42.6653 
 205   0.0000       1.607271        43.7361 
 206   0.0000       1.623843        44.1870 
 207   0.0000       1.629098        44.3300 
 208   0.0000       1.639789        44.6209 
 209   0.0000       1.658845        45.1395 
 210   0.0000       1.671309        45.4786 
 211   0.0000       1.690606        46.0037 
 212   0.0000       1.694488        46.1094 
 213   0.0000       1.699903        46.2567 
 214   0.0000       1.755305        47.7643 
 215   0.0000       1.770874        48.1879 
 216   0.0000       1.794203        48.8227 
 217   0.0000       1.828170        49.7470 
 218   0.0000       1.854315        50.4585 
 219   0.0000       1.857477        50.5445 
 220   0.0000       1.863187        50.6999 
 221   0.0000       1.898304        51.6555 
 222   0.0000       1.905683        51.8563 
 223   0.0000       1.919917        52.2436 
 224   0.0000       1.942688        52.8632 
 225   0.0000       1.947343        52.9899 
 226   0.0000       1.995063        54.2884 
 227   0.0000       2.001204        54.4555 
 228   0.0000       2.012360        54.7591 
 229   0.0000       2.031024        55.2670 
 230   0.0000       2.032655        55.3114 
 231   0.0000       2.045763        55.6680 
 232   0.0000       2.071627        56.3718 
 233   0.0000       2.089499        56.8582 
 234   0.0000       2.146579        58.4114 
 235   0.0000       2.180919        59.3458 
 236   0.0000       2.190111        59.5960 
 237   0.0000       2.194293        59.7098 
 238   0.0000       2.208067        60.0845 
 239   0.0000       2.241696        60.9997 
 240   0.0000       2.265876        61.6576 
 241   0.0000       2.289451        62.2991 
 242   0.0000       2.297886        62.5286 
 243   0.0000       2.318887        63.1001 
 244   0.0000       2.335850        63.5617 
 245   0.0000       2.338839        63.6431 
 246   0.0000       2.376450        64.6665 
 247   0.0000       2.419119        65.8276 
 248   0.0000       2.449859        66.6641 
 249   0.0000       2.485545        67.6351 
 250   0.0000       2.505410        68.1757 
 251   0.0000       2.562507        69.7294 
 252   0.0000       2.584935        70.3397 
 253   0.0000       2.650384        72.1206 
 254   0.0000       2.733037        74.3697 
 255   0.0000       2.749560        74.8193 
 256   0.0000       2.782113        75.7052 
 257   0.0000       2.816161        76.6316 
 258   0.0000       2.853620        77.6510 
 259   0.0000       2.875560        78.2480 
 260   0.0000       2.952602        80.3444 
 261   0.0000       2.999823        81.6293 
 262   0.0000       3.072274        83.6008 
 263   0.0000       3.105689        84.5101 
 264   0.0000       3.163967        86.0959 
 265   0.0000       3.280528        89.2677 
 266   0.0000       3.281745        89.3008 
 267   0.0000       3.285988        89.4163 
 268   0.0000       3.305485        89.9468 
 269   0.0000       3.361654        91.4752 
 270   0.0000       3.387780        92.1862 
 271   0.0000       3.398345        92.4737 
 272   0.0000       3.413038        92.8735 
 273   0.0000       3.462376        94.2160 
 274   0.0000       3.587342        97.6165 
 275   0.0000       3.598278        97.9141 
 276   0.0000       3.778073       102.8066 
 277   0.0000       3.801661       103.4484 
 278   0.0000       3.839064       104.4662 
 279   0.0000       4.118845       112.0795 
-------
TIMINGS
-------

Total SCF time: 0 days 0 hours 0 min 25 sec 

Total time                  ....      25.134 sec
Sum of individual times     ....      24.437 sec  ( 97.2%)

Fock matrix formation       ....      14.802 sec  ( 58.9%)
  XC integration            ....       2.037 sec  ( 13.8% of F)
    Basis function eval.    ....       0.567 sec  ( 27.8% of XC)
    Density eval.           ....       0.609 sec  ( 29.9% of XC)
    XC-Functional eval.     ....       0.070 sec  (  3.4% of XC)
    XC-Potential eval.      ....       0.447 sec  ( 21.9% of XC)
Diagonalization             ....       0.032 sec  (  0.1%)
Density matrix formation    ....       0.066 sec  (  0.3%)
Population analysis         ....       0.000 sec  (  0.0%)
Initial guess               ....       0.054 sec  (  0.2%)
Orbital Transformation      ....       0.000 sec  (  0.0%)
Orbital Orthonormalization  ....       0.024 sec  (  0.1%)
DIIS solution               ....       0.010 sec  (  0.0%)
SOSCF solution              ....       0.218 sec  (  0.9%)
Grid generation             ....       9.254 sec  ( 36.8%)

-------------------------   --------------------
FINAL SINGLE POINT ENERGY      -544.973396285041
-------------------------   --------------------

                                *** OPTIMIZATION RUN DONE ***


                    ***********************HURRAY************************
                    ***        THE TS OPTIMIZATION HAS CONVERGED      ***
                    *****************************************************



---------------------------------------------------------------
                      PATH SUMMARY FOR NEB-TS             
---------------------------------------------------------------
All forces in Eh/Bohr. Global forces for TS.

Image     E(Eh)   dE(kcal/mol)  max(|Fp|)  RMS(Fp)
  0    -544.97616     0.00       0.00076   0.00030
  1    -544.97335     1.77       0.00074   0.00047 <= CI
 TS    -544.97340     1.73       0.00015   0.00007 <= TS
  2    -544.98184    -3.56       0.00686   0.00259
  3    -544.99459   -11.56       0.00166   0.00103
  4    -545.00318   -16.96       0.00150   0.00123
  5    -545.00827   -20.15       0.00151   0.00094
  6    -545.01119   -21.98       0.00127   0.00055
  7    -545.01270   -22.93       0.00219   0.00094
  8    -545.01327   -23.29       0.00123   0.00057
  9    -545.01365   -23.53       0.00123   0.00047
 10    -545.01400   -23.75       0.00097   0.00035
 11    -545.01431   -23.94       0.00251   0.00115
 12    -545.01451   -24.07       0.00249   0.00112
 13    -545.01457   -24.10       0.00076   0.00034
----------
STATISTICS
----------

For the individual parts of the NEB, NEB-CI or NEB-TS run:

Number of iterations:
     NEB                               ... 62  51.7%
     TS optimization                   ... 58  48.3%
Number of SCF / gradient calculations:
     NEB                               ... 746  92.8%
     TS optimization                   ... 58  7.2%

----------
 TIMINGS
----------

For the individual parts of the NEB, NEB-CI or NEB-TS run:

Total                                  ...    49548.272 sec
NEB                                    ...    46668.406 sec  94.2%
TS Optimization                        ...     2879.866 sec  5.8%


                            ***************************************
                            *     ORCA property calculations      *
                            ***************************************

                                    ---------------------
                                    Active property flags
                                    ---------------------
   (+) Dipole Moment


------------------------------------------------------------------------------
                       ORCA ELECTRIC PROPERTIES CALCULATION
------------------------------------------------------------------------------

Dipole Moment Calculation                       ... on
Quadrupole Moment Calculation                   ... off
Polarizability Calculation                      ... off
GBWName                                         ... 4-NO2-C6H3-N2-NEB-TS.gbw
Electron density file                           ... 4-NO2-C6H3-N2-NEB-TS.scfp.tmp
The origin for moment calculation is the CENTER OF MASS  = (-0.144413, -0.249259 -0.130446)

-------------
DIPOLE MOMENT
-------------
                                X             Y             Z
Electronic contribution:      2.37589      -0.77885      -0.62593
Nuclear contribution   :     -0.16829       1.83766       1.05625
                        -----------------------------------------
Total Dipole Moment    :      2.20761       1.05881       0.43033
                        -----------------------------------------
Magnitude (a.u.)       :      2.48592
Magnitude (Debye)      :      6.31870



--------------------
Rotational spectrum 
--------------------
 
Rotational constants in cm-1:     0.131515     0.019617     0.017072 
Rotational constants in MHz :  3942.726805   588.114780   511.790778 

 Dipole components along the rotational axes: 
x,y,z [a.u.] :     2.158992    -1.232265    -0.008057 
x,y,z [Debye]:     5.487720    -3.132169    -0.020480 

 

Timings for individual modules:

Sum of individual times         ...     3080.272 sec (=  51.338 min)
GTO integral calculation        ...      133.961 sec (=   2.233 min)   4.3 %
SCF iterations                  ...     2094.750 sec (=  34.913 min)  68.0 %
SCF Gradient evaluation         ...      846.108 sec (=  14.102 min)  27.5 %
Geometry relaxation             ...        5.453 sec (=   0.091 min)   0.2 %
                             ****ORCA TERMINATED NORMALLY****
TOTAL RUN TIME: 0 days 13 hours 46 minutes 55 seconds 384 msec
