
                                 *****************
                                 * O   R   C   A *
                                 *****************

           --- An Ab Initio, DFT and Semiempirical electronic structure package ---

                  #######################################################
                  #                        -***-                        #
                  #          Department of theory and spectroscopy      #
                  #               Directorship: Frank Neese             #
                  #        Max Planck Institute fuer Kohlenforschung    #
                  #                Kaiser Wilhelm Platz 1               #
                  #                 D-45470 Muelheim/Ruhr               #
                  #                      Germany                        #
                  #                                                     #
                  #                  All rights reserved                #
                  #                        -***-                        #
                  #######################################################


                         Program Version 4.1.0  - RELEASE  -


 With contributions from (in alphabetic order):
   Daniel Aravena         : Magnetic Properties
   Michael Atanasov       : Ab Initio Ligand Field Theory
   Alexander A. Auer      : GIAO ZORA
   Ute Becker             : Parallelization
   Giovanni Bistoni       : ED, Open-shell LED
   Martin Brehm           : Molecular dynamics
   Dmytro Bykov           : SCF Hessian
   Vijay G. Chilkuri      : MRCI spin determinant printing
   Dipayan Datta          : RHF DLPNO-CCSD density
   Achintya Kumar Dutta   : EOM-CC, STEOM-CC
   Dmitry Ganyushin       : Spin-Orbit,Spin-Spin,Magnetic field MRCI
   Miquel Garcia          : C-PCM Hessian
   Yang Guo               : DLPNO-NEVPT2, CIM, IAO-localization
   Andreas Hansen         : Spin unrestricted coupled pair/coupled cluster methods
   Benjamin Helmich-Paris : CASSCF linear response (MC-RPA)
   Lee Huntington         : MR-EOM, pCC
   Robert Izsak           : Overlap fitted RIJCOSX, COSX-SCS-MP3, EOM
   Christian Kollmar      : KDIIS, OOCD, Brueckner-CCSD(T), CCSD density
   Simone Kossmann        : Meta GGA functionals, TD-DFT gradient, OOMP2, MP2 Hessian
   Martin Krupicka        : AUTO-CI
   Lucas Lang             : DCDCAS
   Dagmar Lenk            : GEPOL surface, SMD
   Dimitrios Liakos       : Extrapolation schemes; parallel MDCI
   Dimitrios Manganas     : ROCIS; embedding schemes
   Dimitrios Pantazis     : SARC Basis sets
   Taras Petrenko         : DFT Hessian,TD-DFT gradient, ASA, ECA, R-Raman, ABS, FL, XAS/XES, NRVS
   Peter Pinski           : DLPNO-MP2, DLPNO-MP2 Gradient
   Christoph Reimann      : Effective Core Potentials
   Marius Retegan         : Local ZFS, SOC
   Christoph Riplinger    : Optimizer, TS searches, QM/MM, DLPNO-CCSD(T), (RO)-DLPNO pert. Triples
   Tobias Risthaus        : Range-separated hybrids, TD-DFT gradient, RPA, STAB
   Michael Roemelt        : Restricted open shell CIS
   Masaaki Saitow         : Open-shell DLPNO
   Barbara Sandhoefer     : DKH picture change effects
   Avijit Sen             : IP-ROCIS
   Kantharuban Sivalingam : CASSCF convergence, NEVPT2, FIC-MRCI
   Bernardo de Souza      : ESD, SOC TD-DFT
   Georgi Stoychev        : AutoAux, RI-MP2 NMR
   Willem Van den Heuvel  : Paramagnetic NMR
   Boris Wezisla          : Elementary symmetry handling
   Frank Wennmohs         : Technical directorship


 We gratefully acknowledge several colleagues who have allowed us to
 interface, adapt or use parts of their codes:
   Stefan Grimme, W. Hujo, H. Kruse,             : VdW corrections, initial TS optimization,
                  C. Bannwarth                     DFT functionals, gCP, sTDA/sTD-DF
   Ed Valeev                                     : LibInt (2-el integral package), F12 methods
   Garnet Chan, S. Sharma, J. Yang, R. Olivares  : DMRG
   Ulf Ekstrom                                   : XCFun DFT Library
   Mihaly Kallay                                 : mrcc  (arbitrary order and MRCC methods)
   Andreas Klamt, Michael Diedenhofen            : otool_cosmo (COSMO solvation model)
   Jiri Pittner, Ondrej Demel                    : Mk-CCSD
   Frank Weinhold                                : gennbo (NPA and NBO analysis)
   Christopher J. Cramer and Donald G. Truhlar   : smd solvation model
   Lars Goerigk                                  : TD-DFT with DH, B97 family of functionals
   V. Asgeirsson, H. Jonsson                     : NEB implementation
   FAccTs GmbH                                   : IRC, NEB, NEB-TS, Multilevel


 Your calculation uses the libint2 library for the computation of 2-el integrals
 For citations please refer to: http://libint.valeyev.net

 This ORCA versions uses:
   CBLAS   interface :  Fast vector & matrix operations
   LAPACKE interface :  Fast linear algebra routines
   SCALAPACK package :  Parallel linear algebra routines




***************************************
The coordinates will be read from file: C6H4-N2-source.xyz
***************************************


Your calculation utilizes a Nudged-Elastic-Band implementation
 by V.Asgeirsson, C. Riplinger & H. Jonsson
Please cite in your paper:
 V. Asgeirsson et al., in prep. (2019)
   

----- Orbital basis set information -----
Your calculation utilizes the basis: aug-cc-pVDZ 
    H, B-Ne : Obtained from the ccRepo (grant-hill.group.shef.ac.uk/ccrepo) Feb. 2017
              R. A. Kendall, T. H. Dunning, Jr., R. J. Harrison, J. Chem. Phys. 96, 6796 (1992)
         He : Obtained from the ccRepo (grant-hill.group.shef.ac.uk/ccrepo) Feb. 2017
              D. E. Woon, T. H. Dunning, Jr., J. Chem. Phys. 100, 2975 (1994)
  Li-Be, Na : Obtained from the ccRepo (grant-hill.group.shef.ac.uk/ccrepo) Feb. 2017
              B. P. Prascher, D. E. Woon, K. A. Peterson, T. H. Dunning, Jr., A. K. Wilson, Theor. Chem. Acc. 128, 69 (2011)
         Mg : Obtained from the Peterson Research Group Website (tyr0.chem.wsu.edu/~kipeters) Feb. 2017
              B. P. Prascher, D. E. Woon, K. A. Peterson, T. H. Dunning, Jr., A. K. Wilson, Theor. Chem. Acc. 128, 69 (2011)
      Al-Ar : Obtained from the ccRepo (grant-hill.group.shef.ac.uk/ccrepo) Feb. 2017
              D. E. Woon, T. H. Dunning, Jr., J. Chem. Phys. 98, 1358 (1993)
      Sc-Zn : Obtained from the ccRepo (grant-hill.group.shef.ac.uk/ccrepo) Feb. 2017
              N. B. Balabanov, K. A. Peterson, J. Chem. Phys. 123, 064107 (2005)
              N. B. Balabanov, K. A. Peterson, J. Chem. Phys. 125, 074110 (2006)
      Ga-Kr : Obtained from the ccRepo (grant-hill.group.shef.ac.uk/ccrepo) Feb. 2017
              A. K. Wilson, D. E. Woon, K. A. Peterson, T. H. Dunning, Jr., J. Chem. Phys. 110, 7667 (1999)

================================================================================
                                        WARNINGS
                       Please study these warnings very carefully!
================================================================================


WARNING: Geometry Optimization
  ===> : Switching off AutoStart
         For restart on a previous wavefunction, please use MOREAD

INFO   : the flag for use of LIBINT has been found!

================================================================================
                                       INPUT FILE
================================================================================
NAME = C6H4-N2-NEB-TS.orc
|  1> ! B3LYP/G aug-cc-pVDZ TightSCF Grid7 NEB-TS
|  2> %scf MaxIter 1000 end
|  3> %geom MaxIter 1000 TolE 1e-8 TolRMSG 5e-7 TolMaxG 1e-6 Convergence tight end
|  4> %neb
|  5>   Nimages 12
|  6>   neb_end_xyzfile "C6H4-N2-final.xyz"
|  7> end
|  8> * xyzfile 0 1 C6H4-N2-source.xyz
|  9> %pal nprocs 42 end
| 10> 
| 11>                          ****END OF INPUT****
================================================================================

Running a Single Point calculation on the reactant structure before starting the actual NEB.

---------------------------------
CARTESIAN COORDINATES (ANGSTROEM)
---------------------------------
  C     -1.892075    0.099148   -1.070039
  C     -0.471272   -0.020818   -1.001349
  C      0.016361    0.831806    0.004805
  C     -0.659843    1.720532    0.886376
  C     -2.030499    1.759878    0.736122
  C     -2.640562    0.941578   -0.249604
  H     -2.432150   -0.502525   -1.807724
  N      1.408437    0.768766    0.131989
  N      2.520546    0.674366    0.185150
  H     -3.727641    0.982145   -0.358486
  H     -2.635716    2.410800    1.366277
  H     -0.134696    2.326112    1.626272

----------------------------
CARTESIAN COORDINATES (A.U.)
----------------------------
  NO LB      ZA    FRAG     MASS         X           Y           Z
   0 C     6.0000    0    12.011   -3.575503    0.187363   -2.022081
   1 C     6.0000    0    12.011   -0.890576   -0.039339   -1.892275
   2 C     6.0000    0    12.011    0.030917    1.571886    0.009081
   3 C     6.0000    0    12.011   -1.246922    3.251334    1.675008
   4 C     6.0000    0    12.011   -3.837087    3.325688    1.391069
   5 C     6.0000    0    12.011   -4.989939    1.779324   -0.471683
   6 H     1.0000    0     1.008   -4.596097   -0.949634   -3.416103
   7 N     7.0000    0    14.007    2.661560    1.452758    0.249423
   8 N     7.0000    0    14.007    4.763141    1.274367    0.349882
   9 H     1.0000    0     1.008   -7.044220    1.855985   -0.677441
  10 H     1.0000    0     1.008   -4.980782    4.555752    2.581890
  11 H     1.0000    0     1.008   -0.254538    4.395715    3.073209

--------------------------------
INTERNAL COORDINATES (ANGSTROEM)
--------------------------------
 C      0   0   0     0.000000000000     0.00000000     0.00000000
 C      1   0   0     1.427511332187     0.00000000     0.00000000
 C      2   1   0     1.406093364651   109.18646047     0.00000000
 C      3   2   1     1.422761940843   131.09627953     0.00000000
 C      4   3   2     1.379428814440   114.99747437     0.00000000
 C      1   2   3     1.393927796116   123.84212479     0.00000000
 H      1   2   3     1.094472847312   118.51387708   179.99976466
 N      3   2   1     1.399294651375   112.50299607   180.00095320
 N      8   3   2     1.117373482065   176.64328433     0.00000000
 H      6   1   2     1.093270995233   119.84984382   179.99923034
 H      5   4   3     1.089533124263   120.39726151   180.00012096
 H      4   3   2     1.090850029468   122.56392723   179.99861400

---------------------------
INTERNAL COORDINATES (A.U.)
---------------------------
 C      0   0   0     0.000000000000     0.00000000     0.00000000
 C      1   0   0     2.697605470903     0.00000000     0.00000000
 C      2   1   0     2.657131377914   109.18646047     0.00000000
 C      3   2   1     2.688630421960   131.09627953     0.00000000
 C      4   3   2     2.606742680532   114.99747437     0.00000000
 C      1   2   3     2.634141785120   123.84212479     0.00000000
 H      1   2   3     2.068253942433   118.51387708   179.99976466
 N      3   2   1     2.644283671759   112.50299607   180.00095320
 N      8   3   2     2.111529870410   176.64328433     0.00000000
 H      6   1   2     2.065982771151   119.84984382   179.99923034
 H      5   4   3     2.058919218692   120.39726151   180.00012096
 H      4   3   2     2.061407808874   122.56392723   179.99861400

---------------------
BASIS SET INFORMATION
---------------------
There are 3 groups of distinct atoms

 Group   1 Type C   : 18s5p2d contracted to 4s3p2d pattern {8811/311/11}
 Group   2 Type H   : 5s2p contracted to 3s2p pattern {311/11}
 Group   3 Type N   : 18s5p2d contracted to 4s3p2d pattern {8811/311/11}

Atom   0C    basis set group =>   1
Atom   1C    basis set group =>   1
Atom   2C    basis set group =>   1
Atom   3C    basis set group =>   1
Atom   4C    basis set group =>   1
Atom   5C    basis set group =>   1
Atom   6H    basis set group =>   2
Atom   7N    basis set group =>   3
Atom   8N    basis set group =>   3
Atom   9H    basis set group =>   2
Atom  10H    basis set group =>   2
Atom  11H    basis set group =>   2


           ************************************************************
           *        Program running with 42 parallel MPI-processes    *
           *            working without local directories             *
           ************************************************************
------------------------------------------------------------------------------
                           ORCA GTO INTEGRAL CALCULATION
------------------------------------------------------------------------------

                         BASIS SET STATISTICS AND STARTUP INFO

 # of primitive gaussian shells          ...  228
 # of primitive gaussian functions       ...  388
 # of contracted shells                  ...   92
 # of contracted basis functions         ...  220
 Highest angular momentum                ...    2
 Maximum contraction depth               ...    8
 Integral package used                   ... LIBINT
 Integral threshhold            Thresh   ...  2.500e-11
 Primitive cut-off              TCut     ...  2.500e-12


------------------------------ INTEGRAL EVALUATION ----------------------------


 * One electron integrals 
 Pre-screening matrix                    ... done
 Shell pair data                         ... done (   0.002 sec)



           ************************************************************
           *        Program running with 42 parallel MPI-processes    *
           *            working without local directories             *
           ************************************************************
-------------------------------------------------------------------------------
                                 ORCA SCF
-------------------------------------------------------------------------------

------------
SCF SETTINGS
------------
Hamiltonian:
 Density Functional     Method          .... DFT(GTOs)
 Exchange Functional    Exchange        .... B88
   X-Alpha parameter    XAlpha          ....  0.666667
   Becke's b parameter  XBeta           ....  0.004200
 Correlation Functional Correlation     .... LYP
 LDA part of GGA corr.  LDAOpt          .... VWN-3
 Gradients option       PostSCFGGA      .... off
 Hybrid DFT is turned on
   Fraction HF Exchange ScalHFX         ....  0.200000
   Scaling of DF-GGA-X  ScalDFX         ....  0.720000
   Scaling of DF-GGA-C  ScalDFC         ....  0.810000
   Scaling of DF-LDA-C  ScalLDAC        ....  1.000000
   Perturbative correction              ....  0.000000
   Density functional embedding theory  .... OFF
   NL short-range parameter             ....  4.800000


General Settings:
 Integral files         IntName         .... C6H4-N2-NEB-TS
 Hartree-Fock type      HFTyp           .... RHF
 Total Charge           Charge          ....    0
 Multiplicity           Mult            ....    1
 Number of Electrons    NEL             ....   54
 Basis Dimension        Dim             ....  220
 Nuclear Repulsion      ENuc            ....    301.9128961621 Eh

Convergence Acceleration:
 DIIS                   CNVDIIS         .... on
   Start iteration      DIISMaxIt       ....    12
   Startup error        DIISStart       ....  0.200000
   # of expansion vecs  DIISMaxEq       ....     5
   Bias factor          DIISBfac        ....   1.050
   Max. coefficient     DIISMaxC        ....  10.000
 Newton-Raphson         CNVNR           .... off
 SOSCF                  CNVSOSCF        .... on
   Start iteration      SOSCFMaxIt      ....   150
   Startup grad/error   SOSCFStart      ....  0.003300
 Level Shifting         CNVShift        .... on
   Level shift para.    LevelShift      ....    0.2500
   Turn off err/grad.   ShiftErr        ....    0.0010
 Zerner damping         CNVZerner       .... off
 Static damping         CNVDamp         .... on
   Fraction old density DampFac         ....    0.7000
   Max. Damping (<1)    DampMax         ....    0.9800
   Min. Damping (>=0)   DampMin         ....    0.0000
   Turn off err/grad.   DampErr         ....    0.1000
 Fernandez-Rico         CNVRico         .... off

SCF Procedure:
 Maximum # iterations   MaxIter         ....  1000
 SCF integral mode      SCFMode         .... Direct
   Integral package                     .... LIBINT
 Reset frequency        DirectResetFreq ....    20
 Integral Threshold     Thresh          ....  2.500e-11 Eh
 Primitive CutOff       TCut            ....  2.500e-12 Eh

Convergence Tolerance:
 Convergence Check Mode ConvCheckMode   .... Total+1el-Energy
 Convergence forced     ConvForced      .... 0
 Energy Change          TolE            ....  1.000e-08 Eh
 1-El. energy change                    ....  1.000e-05 Eh
 Orbital Gradient       TolG            ....  1.000e-05
 Orbital Rotation angle TolX            ....  1.000e-05
 DIIS Error             TolErr          ....  5.000e-07


Diagonalization of the overlap matrix:
Smallest eigenvalue                        ... 5.385e-06
Time for diagonalization                   ...    0.012 sec
Threshold for overlap eigenvalues          ... 1.000e-08
Number of eigenvalues below threshold      ... 0
Time for construction of square roots      ...    0.013 sec
Total time needed                          ...    0.025 sec

-------------------
DFT GRID GENERATION
-------------------

General Integration Accuracy     IntAcc      ...  5.670
Radial Grid Type                 RadialGrid  ... Gauss-Chebyshev
Angular Grid (max. acc.)         AngularGrid ... Lebedev-770
Angular grid pruning method      GridPruning ... 3 (G Style)
Weight generation scheme         WeightScheme... Becke
Basis function cutoff            BFCut       ...    1.0000e-11
Integration weight cutoff        WCut        ...    1.0000e-14
Grids for H and He will be reduced by one unit

# of grid points (after initial pruning)     ... 271616 (   0.0 sec)
# of grid points (after weights+screening)   ... 252278 (   0.2 sec)
nearest neighbour list constructed           ...    0.0 sec
Grid point re-assignment to atoms done       ...    0.1 sec
Grid point division into batches done        ...    5.4 sec
Reduced shell lists constructed in    5.6 sec

Total number of grid points                  ...   252278
Total number of batches                      ...     3949
Average number of points per batch           ...       63
Average number of grid points per atom       ...    21023
Average number of shells per batch           ...    79.14 (86.02%)
Average number of basis functions per batch  ...   189.20 (86.00%)
Average number of large shells per batch     ...    68.42 (86.46%)
Average number of large basis fcns per batch ...   165.48 (87.46%)
Maximum spatial batch extension              ...   3.28, 11.39, 11.12 au
Average spatial batch extension              ...   0.03,  0.04,  0.03 au

Time for grid setup =    7.473 sec

------------------------------
INITIAL GUESS: MODEL POTENTIAL
------------------------------
Loading Hartree-Fock densities                     ... done
Calculating cut-offs                               ... done
Setting up the integral package                    ... done
Initializing the effective Hamiltonian             ... done
Starting the Coulomb interaction                   ... done (   0.0 sec)
Reading the grid                                   ... done
Mapping shells                                     ... done
Starting the XC term evaluation                    ... done (   0.2 sec)
  promolecular density results
     # of electrons  =     53.998042687
     EX              =    -45.075050035
     EC              =     -1.825478262
     EX+EC           =    -46.900528296
Transforming the Hamiltonian                       ... done (   0.0 sec)
Diagonalizing the Hamiltonian                      ... done (   0.0 sec)
Back transforming the eigenvectors                 ... done (   0.0 sec)
Now organizing SCF variables                       ... done
                      ------------------
                      INITIAL GUESS DONE (   7.9 sec)
                      ------------------
--------------
SCF ITERATIONS
--------------
ITER       Energy         Delta-E        Max-DP      RMS-DP      [F,P]     Damp
               ***  Starting incremental Fock matrix formation  ***
  0   -340.2298818084   0.000000000000 0.44993976  0.01363688  0.1383860 0.7000
  1   -340.3345024352  -0.104620626726 0.31519217  0.00958057  0.0642157 0.7000
                               ***Turning on DIIS***
  2   -340.3696296247  -0.035127189562 0.59177869  0.01945838  0.0285480 0.0000
  3   -340.4175380009  -0.047908376151 0.18751584  0.00382478  0.0419504 0.0000
  4   -340.4388858412  -0.021347840374 0.06032760  0.00137070  0.0126706 0.0000
                      *** Initiating the SOSCF procedure ***
                           *** Shutting down DIIS ***
                      *** Re-Reading the Fockian *** 
                      *** Removing any level shift *** 
ITER      Energy       Delta-E        Grad      Rot      Max-DP    RMS-DP
  5   -340.44047192  -0.0015860804  0.002575  0.002575  0.034459  0.000620
               *** Restarting incremental Fock matrix formation ***
  6   -340.44065776  -0.0001858421  0.001894  0.015923  0.047165  0.000588
  7   -340.44064311   0.0000146494  0.004440  0.010693  0.024950  0.000344
  8   -340.44078007  -0.0001369514  0.000843  0.004491  0.011898  0.000275
  9   -340.44077165   0.0000084167  0.001414  0.002887  0.004070  0.000112
 10   -340.44079355  -0.0000219011  0.000161  0.000925  0.010680  0.000163
 11   -340.44079309   0.0000004593  0.000243  0.000392  0.003967  0.000070
 12   -340.44079443  -0.0000013367  0.000030  0.000234  0.007213  0.000128
 13   -340.44079441   0.0000000203  0.000046  0.000095  0.001569  0.000048
 14   -340.44079447  -0.0000000618  0.000011  0.000048  0.004415  0.000099
 15   -340.44079447   0.0000000016  0.000010  0.000018  0.006865  0.000116
 16   -340.44079447  -0.0000000068  0.000004  0.000021  0.018783  0.000285
 17   -340.44079447   0.0000000013  0.000003  0.000010  0.004074  0.000073
                  ***Gradient check signals convergence***
              ***Rediagonalizing the Fockian in SOSCF/NRSCF***

               *****************************************************
               *                     SUCCESS                       *
               *           SCF CONVERGED AFTER  18 CYCLES          *
               *****************************************************


----------------
TOTAL SCF ENERGY
----------------

Total Energy       :         -340.44079447 Eh           -9263.86498 eV

Components:
Nuclear Repulsion  :          301.91289616 Eh            8215.46757 eV
Electronic Energy  :         -642.35369064 Eh          -17479.33255 eV
One Electron Energy:        -1055.45118371 Eh          -28720.28682 eV
Two Electron Energy:          413.09749308 Eh           11240.95427 eV

Virial components:
Potential Energy   :         -678.67584892 Eh          -18467.70873 eV
Kinetic Energy     :          338.23505444 Eh            9203.84375 eV
Virial Ratio       :            2.00652132


DFT components:
N(Alpha)           :       27.000000165401 electrons
N(Beta)            :       27.000000165401 electrons
N(Total)           :       54.000000330801 electrons
E(X)               :      -36.215548757691 Eh       
E(C)               :       -2.352457481320 Eh       
E(XC)              :      -38.568006239010 Eh       
DFET-embed. en.    :        0.000000000000 Eh       

---------------
SCF CONVERGENCE
---------------

  Last Energy change         ...   -1.3926e-09  Tolerance :   1.0000e-08
  Last MAX-Density change    ...    5.0422e-03  Tolerance :   1.0000e-07
  Last RMS-Density change    ...    1.0480e-04  Tolerance :   5.0000e-09
  Last Orbital Gradient      ...    1.5957e-06  Tolerance :   1.0000e-05
  Last Orbital Rotation      ...    6.9342e-06  Tolerance :   1.0000e-05

             **** THE GBW FILE WAS UPDATED (C6H4-N2-NEB-TS.gbw) ****
             **** DENSITY FILE WAS UPDATED (C6H4-N2-NEB-TS.scfp.tmp) ****
             **** ENERGY FILE WAS UPDATED (C6H4-N2-NEB-TS.en.tmp) ****
----------------
ORBITAL ENERGIES
----------------

  NO   OCC          E(Eh)            E(eV) 
   0   2.0000     -14.539144      -395.6302 
   1   2.0000     -14.495500      -394.4426 
   2   2.0000     -10.269084      -279.4360 
   3   2.0000     -10.227518      -278.3049 
   4   2.0000     -10.211770      -277.8764 
   5   2.0000     -10.210938      -277.8537 
   6   2.0000     -10.191760      -277.3319 
   7   2.0000     -10.164185      -276.5815 
   8   2.0000      -1.191150       -32.4128 
   9   2.0000      -0.907617       -24.6975 
  10   2.0000      -0.830494       -22.5989 
  11   2.0000      -0.758632       -20.6434 
  12   2.0000      -0.693753       -18.8780 
  13   2.0000      -0.624951       -17.0058 
  14   2.0000      -0.569730       -15.5031 
  15   2.0000      -0.543767       -14.7967 
  16   2.0000      -0.533457       -14.5161 
  17   2.0000      -0.523604       -14.2480 
  18   2.0000      -0.494635       -13.4597 
  19   2.0000      -0.454182       -12.3589 
  20   2.0000      -0.438498       -11.9321 
  21   2.0000      -0.402743       -10.9592 
  22   2.0000      -0.382956       -10.4208 
  23   2.0000      -0.356914        -9.7121 
  24   2.0000      -0.283712        -7.7202 
  25   2.0000      -0.261383        -7.1126 
  26   2.0000      -0.196598        -5.3497 
  27   0.0000      -0.108326        -2.9477 
  28   0.0000      -0.095576        -2.6007 
  29   0.0000      -0.021744        -0.5917 
  30   0.0000      -0.016777        -0.4565 
  31   0.0000       0.001852         0.0504 
  32   0.0000       0.002181         0.0594 
  33   0.0000       0.013395         0.3645 
  34   0.0000       0.032419         0.8822 
  35   0.0000       0.037130         1.0104 
  36   0.0000       0.044575         1.2129 
  37   0.0000       0.049167         1.3379 
  38   0.0000       0.068719         1.8699 
  39   0.0000       0.069531         1.8920 
  40   0.0000       0.072740         1.9794 
  41   0.0000       0.083357         2.2683 
  42   0.0000       0.084424         2.2973 
  43   0.0000       0.092505         2.5172 
  44   0.0000       0.096127         2.6157 
  45   0.0000       0.105664         2.8753 
  46   0.0000       0.110061         2.9949 
  47   0.0000       0.115814         3.1515 
  48   0.0000       0.117868         3.2073 
  49   0.0000       0.126087         3.4310 
  50   0.0000       0.126889         3.4528 
  51   0.0000       0.127889         3.4800 
  52   0.0000       0.136193         3.7060 
  53   0.0000       0.143315         3.8998 
  54   0.0000       0.150597         4.0980 
  55   0.0000       0.154410         4.2017 
  56   0.0000       0.179681         4.8894 
  57   0.0000       0.184783         5.0282 
  58   0.0000       0.187270         5.0959 
  59   0.0000       0.198968         5.4142 
  60   0.0000       0.203531         5.5384 
  61   0.0000       0.212691         5.7876 
  62   0.0000       0.228145         6.2081 
  63   0.0000       0.229656         6.2493 
  64   0.0000       0.233254         6.3472 
  65   0.0000       0.244774         6.6606 
  66   0.0000       0.251462         6.8426 
  67   0.0000       0.253024         6.8851 
  68   0.0000       0.258861         7.0440 
  69   0.0000       0.270573         7.3627 
  70   0.0000       0.281880         7.6703 
  71   0.0000       0.283503         7.7145 
  72   0.0000       0.285727         7.7750 
  73   0.0000       0.294649         8.0178 
  74   0.0000       0.303263         8.2522 
  75   0.0000       0.314715         8.5638 
  76   0.0000       0.319398         8.6913 
  77   0.0000       0.326935         8.8964 
  78   0.0000       0.340629         9.2690 
  79   0.0000       0.358299         9.7498 
  80   0.0000       0.370068        10.0701 
  81   0.0000       0.397560        10.8182 
  82   0.0000       0.400757        10.9051 
  83   0.0000       0.405480        11.0337 
  84   0.0000       0.413034        11.2392 
  85   0.0000       0.423492        11.5238 
  86   0.0000       0.442584        12.0433 
  87   0.0000       0.451778        12.2935 
  88   0.0000       0.460248        12.5240 
  89   0.0000       0.470330        12.7983 
  90   0.0000       0.481231        13.0950 
  91   0.0000       0.486650        13.2424 
  92   0.0000       0.508493        13.8368 
  93   0.0000       0.525786        14.3074 
  94   0.0000       0.528495        14.3811 
  95   0.0000       0.538266        14.6470 
  96   0.0000       0.539052        14.6684 
  97   0.0000       0.556148        15.1336 
  98   0.0000       0.556445        15.1416 
  99   0.0000       0.559823        15.2336 
 100   0.0000       0.570815        15.5327 
 101   0.0000       0.572939        15.5905 
 102   0.0000       0.583456        15.8766 
 103   0.0000       0.610053        16.6004 
 104   0.0000       0.616047        16.7635 
 105   0.0000       0.619633        16.8611 
 106   0.0000       0.632776        17.2187 
 107   0.0000       0.633234        17.2312 
 108   0.0000       0.643527        17.5113 
 109   0.0000       0.653498        17.7826 
 110   0.0000       0.666734        18.1428 
 111   0.0000       0.686952        18.6929 
 112   0.0000       0.696777        18.9603 
 113   0.0000       0.700927        19.0732 
 114   0.0000       0.715156        19.4604 
 115   0.0000       0.719692        19.5838 
 116   0.0000       0.725664        19.7463 
 117   0.0000       0.733560        19.9612 
 118   0.0000       0.742324        20.1997 
 119   0.0000       0.748442        20.3661 
 120   0.0000       0.750534        20.4231 
 121   0.0000       0.764563        20.8048 
 122   0.0000       0.777684        21.1619 
 123   0.0000       0.790100        21.4997 
 124   0.0000       0.799066        21.7437 
 125   0.0000       0.805008        21.9054 
 126   0.0000       0.817125        22.2351 
 127   0.0000       0.834291        22.7022 
 128   0.0000       0.853191        23.2165 
 129   0.0000       0.879352        23.9284 
 130   0.0000       0.883771        24.0486 
 131   0.0000       0.884798        24.0766 
 132   0.0000       0.924628        25.1604 
 133   0.0000       0.925859        25.1939 
 134   0.0000       0.957806        26.0632 
 135   0.0000       0.977583        26.6014 
 136   0.0000       0.992670        27.0119 
 137   0.0000       1.024800        27.8862 
 138   0.0000       1.065990        29.0071 
 139   0.0000       1.114438        30.3254 
 140   0.0000       1.119555        30.4646 
 141   0.0000       1.145607        31.1736 
 142   0.0000       1.149954        31.2918 
 143   0.0000       1.186631        32.2899 
 144   0.0000       1.219410        33.1818 
 145   0.0000       1.267314        34.4854 
 146   0.0000       1.267963        34.5030 
 147   0.0000       1.298863        35.3439 
 148   0.0000       1.317854        35.8606 
 149   0.0000       1.325027        36.0558 
 150   0.0000       1.343386        36.5554 
 151   0.0000       1.366391        37.1814 
 152   0.0000       1.372589        37.3500 
 153   0.0000       1.383271        37.6407 
 154   0.0000       1.403771        38.1986 
 155   0.0000       1.414221        38.4829 
 156   0.0000       1.419015        38.6133 
 157   0.0000       1.435305        39.0566 
 158   0.0000       1.450309        39.4649 
 159   0.0000       1.452496        39.5244 
 160   0.0000       1.484962        40.4079 
 161   0.0000       1.509515        41.0760 
 162   0.0000       1.518649        41.3245 
 163   0.0000       1.535127        41.7729 
 164   0.0000       1.536917        41.8216 
 165   0.0000       1.583117        43.0788 
 166   0.0000       1.598677        43.5022 
 167   0.0000       1.608063        43.7576 
 168   0.0000       1.658597        45.1327 
 169   0.0000       1.663697        45.2715 
 170   0.0000       1.670053        45.4444 
 171   0.0000       1.675665        45.5972 
 172   0.0000       1.710379        46.5418 
 173   0.0000       1.754738        47.7488 
 174   0.0000       1.771119        48.1946 
 175   0.0000       1.777200        48.3601 
 176   0.0000       1.789919        48.7062 
 177   0.0000       1.825845        49.6838 
 178   0.0000       1.869148        50.8621 
 179   0.0000       1.892507        51.4977 
 180   0.0000       1.904417        51.8218 
 181   0.0000       1.921576        52.2888 
 182   0.0000       1.925102        52.3847 
 183   0.0000       1.947247        52.9873 
 184   0.0000       1.999419        54.4070 
 185   0.0000       2.014979        54.8304 
 186   0.0000       2.018547        54.9274 
 187   0.0000       2.026590        55.1463 
 188   0.0000       2.059313        56.0368 
 189   0.0000       2.059866        56.0518 
 190   0.0000       2.080446        56.6118 
 191   0.0000       2.085245        56.7424 
 192   0.0000       2.135810        58.1183 
 193   0.0000       2.195008        59.7292 
 194   0.0000       2.238460        60.9116 
 195   0.0000       2.257680        61.4346 
 196   0.0000       2.260574        61.5133 
 197   0.0000       2.273336        61.8606 
 198   0.0000       2.321606        63.1741 
 199   0.0000       2.362941        64.2989 
 200   0.0000       2.369890        64.4880 
 201   0.0000       2.399109        65.2831 
 202   0.0000       2.459740        66.9329 
 203   0.0000       2.469918        67.2099 
 204   0.0000       2.563744        69.7630 
 205   0.0000       2.588999        70.4503 
 206   0.0000       2.666921        72.5706 
 207   0.0000       2.747494        74.7631 
 208   0.0000       2.762004        75.1580 
 209   0.0000       2.787208        75.8438 
 210   0.0000       2.865319        77.9693 
 211   0.0000       2.873837        78.2011 
 212   0.0000       2.894669        78.7679 
 213   0.0000       2.996775        81.5464 
 214   0.0000       3.077333        83.7385 
 215   0.0000       3.113007        84.7092 
 216   0.0000       3.213248        87.4369 
 217   0.0000       3.375579        91.8542 
 218   0.0000       3.442836        93.6843 
 219   0.0000       3.786986       103.0491 

                    ********************************
                    * MULLIKEN POPULATION ANALYSIS *
                    ********************************

-----------------------
MULLIKEN ATOMIC CHARGES
-----------------------
   0 C :    0.768191
   1 C :   -1.466270
   2 C :    1.312673
   3 C :    0.864112
   4 C :    0.895088
   5 C :    0.837694
   6 H :   -0.666992
   7 N :    0.467226
   8 N :   -0.832997
   9 H :   -0.728387
  10 H :   -0.693578
  11 H :   -0.756760
Sum of atomic charges:   -0.0000000

--------------------------------
MULLIKEN REDUCED ORBITAL CHARGES
--------------------------------
  0 C s       :     3.199627  s :     3.199627
      pz      :     0.768014  p :     2.069414
      px      :     0.505191
      py      :     0.796209
      dz2     :     0.009875  d :    -0.037232
      dxz     :    -0.032931
      dyz     :    -0.016574
      dx2y2   :     0.038620
      dxy     :    -0.036221
  1 C s       :     4.205050  s :     4.205050
      pz      :     1.034004  p :     3.250823
      px      :     1.253477
      py      :     0.963342
      dz2     :     0.016588  d :     0.010397
      dxz     :    -0.020240
      dyz     :     0.008256
      dx2y2   :     0.018823
      dxy     :    -0.013030
  2 C s       :     3.056211  s :     3.056211
      pz      :     0.572695  p :     1.490352
      px      :     0.270035
      py      :     0.647623
      dz2     :     0.030628  d :     0.140764
      dxz     :     0.019107
      dyz     :     0.061998
      dx2y2   :     0.021012
      dxy     :     0.008019
  3 C s       :     3.188856  s :     3.188856
      pz      :     0.757443  p :     2.177017
      px      :     0.624791
      py      :     0.794782
      dz2     :    -0.018974  d :    -0.229985
      dxz     :    -0.069320
      dyz     :    -0.044163
      dx2y2   :    -0.051591
      dxy     :    -0.045937
  4 C s       :     3.229301  s :     3.229301
      pz      :     0.682822  p :     2.055558
      px      :     0.629178
      py      :     0.743558
      dz2     :    -0.014285  d :    -0.179947
      dxz     :    -0.053831
      dyz     :    -0.026480
      dx2y2   :    -0.042898
      dxy     :    -0.042452
  5 C s       :     3.272131  s :     3.272131
      pz      :     0.716806  p :     2.065333
      px      :     0.619317
      py      :     0.729209
      dz2     :     0.001428  d :    -0.175157
      dxz     :    -0.080918
      dyz     :    -0.004434
      dx2y2   :    -0.025161
      dxy     :    -0.066073
  6 H s       :     1.691485  s :     1.691485
      pz      :     0.003310  p :    -0.024493
      px      :    -0.030750
      py      :     0.002947
  7 N s       :     3.469760  s :     3.469760
      pz      :     1.162002  p :     2.856499
      px      :     0.535464
      py      :     1.159033
      dz2     :     0.012181  d :     0.206515
      dxz     :     0.079194
      dyz     :     0.001748
      dx2y2   :     0.031241
      dxy     :     0.082151
  8 N s       :     4.586675  s :     4.586675
      pz      :     0.962440  p :     3.179915
      px      :     1.238101
      py      :     0.979375
      dz2     :     0.002664  d :     0.066407
      dxz     :     0.027445
      dyz     :     0.000351
      dx2y2   :     0.008686
      dxy     :     0.027261
  9 H s       :     1.761082  s :     1.761082
      pz      :    -0.017026  p :    -0.032695
      px      :    -0.002908
      py      :    -0.012761
 10 H s       :     1.715691  s :     1.715691
      pz      :    -0.000507  p :    -0.022113
      px      :    -0.026034
      py      :     0.004428
 11 H s       :     1.773949  s :     1.773949
      pz      :     0.005102  p :    -0.017188
      px      :    -0.028454
      py      :     0.006164


                     *******************************
                     * LOEWDIN POPULATION ANALYSIS *
                     *******************************

----------------------
LOEWDIN ATOMIC CHARGES
----------------------
   0 C :   -0.085001
   1 C :    0.043140
   2 C :   -0.312141
   3 C :    0.033535
   4 C :    0.002330
   5 C :    0.007212
   6 H :   -0.017754
   7 N :   -0.004880
   8 N :    0.320062
   9 H :    0.004721
  10 H :    0.003105
  11 H :    0.005671

-------------------------------
LOEWDIN REDUCED ORBITAL CHARGES
-------------------------------
  0 C s       :     2.643076  s :     2.643076
      pz      :     0.856349  p :     2.708432
      px      :     1.007790
      py      :     0.844293
      dz2     :     0.093342  d :     0.733492
      dxz     :     0.202361
      dyz     :     0.083879
      dx2y2   :     0.158645
      dxy     :     0.195265
  1 C s       :     2.792179  s :     2.792179
      pz      :     0.822899  p :     2.614817
      px      :     0.995923
      py      :     0.795995
      dz2     :     0.092658  d :     0.549865
      dxz     :     0.135521
      dyz     :     0.073669
      dx2y2   :     0.126789
      dxy     :     0.121229
  2 C s       :     2.601220  s :     2.601220
      pz      :     0.951285  p :     2.639988
      px      :     0.757726
      py      :     0.930977
      dz2     :     0.211906  d :     1.070933
      dxz     :     0.204622
      dyz     :     0.186251
      dx2y2   :     0.293022
      dxy     :     0.175132
  3 C s       :     2.618878  s :     2.618878
      pz      :     0.851493  p :     2.657057
      px      :     0.970915
      py      :     0.834649
      dz2     :     0.090647  d :     0.690529
      dxz     :     0.187831
      dyz     :     0.086726
      dx2y2   :     0.149557
      dxy     :     0.175768
  4 C s       :     2.620679  s :     2.620679
      pz      :     0.868664  p :     2.679505
      px      :     0.961697
      py      :     0.849144
      dz2     :     0.099849  d :     0.697486
      dxz     :     0.193489
      dyz     :     0.089493
      dx2y2   :     0.142875
      dxy     :     0.171780
  5 C s       :     2.629830  s :     2.629830
      pz      :     0.864512  p :     2.648345
      px      :     0.941635
      py      :     0.842199
      dz2     :     0.166813  d :     0.714612
      dxz     :     0.115906
      dyz     :     0.150410
      dx2y2   :     0.180382
      dxy     :     0.101102
  6 H s       :     0.749506  s :     0.749506
      pz      :     0.096839  p :     0.268247
      px      :     0.084809
      py      :     0.086600
  7 N s       :     2.936451  s :     2.936451
      pz      :     1.001698  p :     3.296206
      px      :     1.291694
      py      :     1.002814
      dz2     :     0.072895  d :     0.772222
      dxz     :     0.237223
      dyz     :     0.009135
      dx2y2   :     0.209829
      dxy     :     0.243140
  8 N s       :     3.243879  s :     3.243879
      pz      :     0.903687  p :     3.153904
      px      :     1.332820
      py      :     0.917397
      dz2     :     0.034177  d :     0.282155
      dxz     :     0.071812
      dyz     :     0.000896
      dx2y2   :     0.100784
      dxy     :     0.074487
  9 H s       :     0.740605  s :     0.740605
      pz      :     0.062091  p :     0.254675
      px      :     0.130025
      py      :     0.062560
 10 H s       :     0.739253  s :     0.739253
      pz      :     0.088436  p :     0.257642
      px      :     0.077263
      py      :     0.091943
 11 H s       :     0.737862  s :     0.737862
      pz      :     0.097139  p :     0.256467
      px      :     0.071468
      py      :     0.087861


                      *****************************
                      * MAYER POPULATION ANALYSIS *
                      *****************************

  NA   - Mulliken gross atomic population
  ZA   - Total nuclear charge
  QA   - Mulliken gross atomic charge
  VA   - Mayer's total valence
  BVA  - Mayer's bonded valence
  FA   - Mayer's free valence

  ATOM       NA         ZA         QA         VA         BVA        FA
  0 C      5.2318     6.0000     0.7682     3.1115     3.1115    -0.0000
  1 C      7.4663     6.0000    -1.4663     1.8290     1.8290     0.0000
  2 C      4.6873     6.0000     1.3127     2.0373     2.0373    -0.0000
  3 C      5.1359     6.0000     0.8641     2.2551     2.2551    -0.0000
  4 C      5.1049     6.0000     0.8951     2.5595     2.5595    -0.0000
  5 C      5.1623     6.0000     0.8377     2.4764     2.4764    -0.0000
  6 H      1.6670     1.0000    -0.6670     0.3599     0.3599    -0.0000
  7 N      6.5328     7.0000     0.4672     2.0899     2.0899     0.0000
  8 N      7.8330     7.0000    -0.8330     1.1923     1.1923    -0.0000
  9 H      1.7284     1.0000    -0.7284     0.2075     0.2075     0.0000
 10 H      1.6936     1.0000    -0.6936     0.3079     0.3079     0.0000
 11 H      1.7568     1.0000    -0.7568     0.2536     0.2536    -0.0000

  Mayer bond orders larger than 0.1
B(  0-C ,  1-C ) :   1.0916 B(  0-C ,  2-C ) :   0.1604 B(  0-C ,  3-C ) :   0.3194 
B(  0-C ,  4-C ) :  -0.2578 B(  0-C ,  5-C ) :   1.1856 B(  0-C ,  6-H ) :   0.3334 
B(  0-C ,  9-H ) :   0.2049 B(  1-C ,  2-C ) :   0.5960 B(  1-C ,  6-H ) :  -0.1396 
B(  1-C ,  7-N ) :   0.1002 B(  1-C ,  8-N ) :   0.1055 B(  2-C ,  3-C ) :   0.7295 
B(  2-C ,  4-C ) :  -0.3243 B(  2-C ,  7-N ) :   0.8438 B(  2-C ,  8-N ) :  -0.4280 
B(  2-C , 10-H ) :  -0.1255 B(  2-C , 11-H ) :   0.5165 B(  3-C ,  4-C ) :   1.6906 
B(  3-C ,  5-C ) :  -0.2957 B(  3-C ,  7-N ) :  -0.1055 B(  3-C ,  8-N ) :   0.1447 
B(  3-C , 10-H ) :   0.1834 B(  3-C , 11-H ) :  -0.2983 B(  4-C ,  5-C ) :   1.1340 
B(  4-C ,  9-H ) :   0.1053 B(  5-C ,  6-H ) :   0.1198 B(  5-C , 10-H ) :   0.2291 
B(  7-N ,  8-N ) :   1.2438 B(  7-N , 11-H ) :  -0.1047 

-------
TIMINGS
-------

Total SCF time: 0 days 0 hours 0 min 32 sec 

Total time                  ....      32.574 sec
Sum of individual times     ....      31.989 sec  ( 98.2%)

Fock matrix formation       ....      23.367 sec  ( 71.7%)
  XC integration            ....       4.597 sec  ( 19.7% of F)
    Basis function eval.    ....       1.022 sec  ( 22.2% of XC)
    Density eval.           ....       0.922 sec  ( 20.1% of XC)
    XC-Functional eval.     ....       0.143 sec  (  3.1% of XC)
    XC-Potential eval.      ....       1.295 sec  ( 28.2% of XC)
Diagonalization             ....       0.088 sec  (  0.3%)
Density matrix formation    ....       0.170 sec  (  0.5%)
Population analysis         ....       0.025 sec  (  0.1%)
Initial guess               ....       0.409 sec  (  1.3%)
Orbital Transformation      ....       0.000 sec  (  0.0%)
Orbital Orthonormalization  ....       0.000 sec  (  0.0%)
DIIS solution               ....       0.227 sec  (  0.7%)
SOSCF solution              ....       0.231 sec  (  0.7%)
Grid generation             ....       7.473 sec  ( 22.9%)

-------------------------   --------------------
FINAL SINGLE POINT ENERGY      -340.440794474330
-------------------------   --------------------



------------------------------------------------------------------------------- 
                         Nudged Elastic Band Calculation                       
------------------------------------------------------------------------------- 

Number of images (incl. end points)     ....  14
Number of intermediate images           ....  12
Number of optimized images              ....  12
Optimization of end points before NEB   ....  NO
Number of atoms                         ....  12
Number of (active) degrees of freedom   ....  36
Constrained atoms                       ....  None

-----------------------------------------
  REACTANT (ANGSTROEM)
-----------------------------------------
C     -1.892075     0.099148    -1.070039 
C     -0.471272    -0.020818    -1.001349 
C      0.016361     0.831806     0.004805 
C     -0.659843     1.720532     0.886376 
C     -2.030499     1.759878     0.736122 
C     -2.640562     0.941578    -0.249604 
H     -2.432150    -0.502525    -1.807724 
N      1.408437     0.768766     0.131989 
N      2.520546     0.674366     0.185150 
H     -3.727641     0.982145    -0.358486 
H     -2.635716     2.410800     1.366277 
H     -0.134696     2.326112     1.626272 

-----------------------------------------
  PRODUCT (ANGSTROEM)
-----------------------------------------
C     -2.461145     0.054753    -1.199506 
C     -1.078465    -0.034446    -1.103113 
C     -0.343220     0.595324    -0.306999 
C     -0.724277     1.518378     0.654495 
C     -2.130455     1.682282     0.636958 
C     -2.964915     0.979027    -0.253854 
H     -3.106042    -0.488597    -1.887844 
N      3.006681     1.322077     0.964628 
N      3.827042     0.768125     0.475489 
H     -4.042429     1.151544    -0.215719 
H     -2.582480     2.382005     1.342931 
H     -0.079295     2.061228     1.342236 



----------------------
NEB settings
----------------------
Method type                             ....  climbing image
Threshold for climbing image            ....  2.00e-02 Eh/Bohr 
Free endpoints                          ....  off 
Tangent type                            ....  improved 
Number of intermediate images           ....  12 
Number of images free to move           ....  12 
Spring type for image distribution      ....  distance between adjacent images 
Spring constant                         ....  1.00e-01 Eh/Bohr^2 
Spring force perp. to the path          ....  tan 
Generation of initial path              ....  image dependent pair potential 
Initial path via TS guess               ....  off 

Minimization of RMSD: Rotation          ....  always 
Minimization of RMSD: Translation type  ....  centroid 
Center fixed to origin                  ....  true 

Reparametrization of the path           ....  on reset 
               Every 0 iterations
               Type of interpolation    ....  linear
Convergence thresholds:
Convergence monitored for               ....  all images
Scaling factor                          ....  100.00

Convergence parameters for regular images:
               Max(|Fp|)                ....  1.00e-01 Eh/Bohr
               RMS(Fp)                  ....  5.00e-02 Eh/Bohr

Convergence parameters for climbing image:
               Max(|F|)                 ....  1.00e-03 Eh/Bohr
               RMS(F)                   ....  5.00e-04 Eh/Bohr
Optimization method:
Method                                  ....  L-BFGS (global)
Max. iterations                         ....  1000 
Step size                               ....  1.00 
Maximum allowed step size               ....  0.10 Bohr
Turn on L-BFGS                          ....  0.0000 Eh/Bohr

LBFGS parameters: 
               Memory                   ....  7 
Generation of  the initial path:
Minimize RMSD between reactant and product configurations     .... done
       RMSD before minimization         ....  1.4796 Bohr
       RMSD after minimization          ....  1.4779 Bohr
Performing linear interpolation         ....  done
Interpolation using                     ....  IDPP (Image Dependent Pair Potential)
IDPP-Settings:
       Convergence tolerance            ....  0.0100 1/Ang.^3
       Max. numer of iterations         ....    7000
       Spring constant                  ....  1.0000 1/Ang.^4
       Time step                        ....  0.0100 fs
       Max. movement per iteration      ....  0.0500 Ang.
       Full print                       ....  false 
IDPP successfuly converged in 82 iterations
Displacement along initial path:              5.1231 Bohr
Writing initial trajectory to file      ....  C6H4-N2-NEB-TS_initial_path.trj



----------------------
NEB OPTIMIZATION      
----------------------

Following output files will be written:
Energy profile during opt. written to    ....  C6H4-N2-NEB-TS.interp
Optimization log-file                    ....  C6H4-N2-NEB-TS.log
Current trajectory will be written to    ....  C6H4-N2-NEB-TS_MEP.trj
       and to allxyz file                ....  C6H4-N2-NEB-TS_MEP.allxyz
       and individual images to xyz file ....  C6H4-N2-NEB-TS_im{NIm}.xyz
Trajectory history will be written to    ....  C6H4-N2-NEB-TS_MEP_ALL.trj
Converged CI will be written to          ....  C6H4-N2-NEB-TS_CI-NEB_converged.xyz
Converged TS will be written to          ....  C6H4-N2-NEB-TS.xyz

Single point energy and gradient calculation of reactant and
product configurations (have to be performed only once)
Properties of fixed NEB end points:
               Reactant:
                         E               ....   -340.440794 Eh
                         RMS(F)          ....      0.000376 Eh/Bohr
                         MAX(|F|)        ....      0.001659 Eh/Bohr
               Product:
                         E               ....   -340.480567 Eh
                         RMS(F)          ....      0.000309 Eh/Bohr
                         MAX(|F|)        ....      0.001258 Eh/Bohr



Starting iterations:

Optim.  Iteration  HEI  E(HEI)-E(0)  max(|Fp|)   RMS(Fp)    dS
Switch-on CI threshold               0.020000 
List of participating nodes    ...  C6H4-N2-NEB-TS.hostnames
LBFGS(G)     0      2    0.009895    0.083039   0.028064  5.1231       
LBFGS(G)     1      2    0.009885    0.082984   0.028031  5.1231       
LBFGS(G)     2      1    0.005383    0.031713   0.010018  5.1388       
LBFGS(G)     3      1    0.005485    0.040423   0.011435  5.1523       
LBFGS(G)     4      1    0.005051    0.020301   0.006283  5.1547       
LBFGS(G)     5      1    0.004871    0.010994   0.004743  5.1691       

Image  1 will be converted to a climbing image in the next iteration (max(|Fp|) < 0.0200) 

Optim.  Iteration  CI   E(CI)-E(0)   max(|Fp|)   RMS(Fp)    dS     max(|FCI|)   RMS(FCI)
Convergence thresholds               0.100000   0.050000            0.001000    0.000500 
LBFGS(G)     6      1    0.004860    0.017031   0.005668  5.1726    0.014151    0.004947       
LBFGS(G)     7      1    0.004868    0.011934   0.004154  5.1752    0.012253    0.004245       
LBFGS(G)     8      1    0.005019    0.008872   0.004148  5.1987    0.009018    0.004092       
LBFGS(G)     9      1    0.005060    0.013504   0.004845  5.2284    0.006780    0.003355       
LBFGS(G)    10      1    0.005294    0.029679   0.005246  5.3306    0.039410    0.015515       
LBFGS(G)    11      1    0.005047    0.020056   0.004865  5.3184    0.028582    0.011001       
LBFGS(G)    12      1    0.004880    0.013222   0.002865  5.3075    0.018135    0.006829       
LBFGS(G)    13      1    0.004687    0.011242   0.003472  5.3170    0.003733    0.002527       
LBFGS(G)    14      1    0.004641    0.020474   0.004208  5.3360    0.019086    0.006961       
LBFGS(G)    15      1    0.004433    0.014498   0.004001  5.3708    0.007562    0.003091       
LBFGS(G)    16      1    0.004408    0.006959   0.003134  5.4230    0.016659    0.005778       
LBFGS(G)    17      1    0.004328    0.021891   0.004889  5.5677    0.006220    0.003705       
LBFGS(G)    18      1    0.004331    0.050168   0.009952  5.5728    0.013554    0.005091       
LBFGS(G)    19      1    0.004316    0.030726   0.006223  5.5061    0.007496    0.002988       
LBFGS(G)    20      1    0.004348    0.020420   0.003660  5.4911    0.009701    0.003608       
LBFGS(G)    21      1    0.004318    0.012497   0.002422  5.5093    0.002973    0.001550       
LBFGS(G)    22      1    0.004297    0.014104   0.002948  5.5313    0.004797    0.002010       
LBFGS(G)    23      1    0.004000    0.026375   0.006772  5.6979    0.003121    0.002415       
LBFGS(G)    24      1    0.003570    0.018028   0.005408  5.9488    0.009630    0.004577       
LBFGS(G)    25      1    0.003663    0.032380   0.007030  5.8772    0.009246    0.003604       
LBFGS(G)    26      1    0.003681    0.014745   0.003731  5.8636    0.007624    0.003066       
LBFGS(G)    27      1    0.003752    0.007872   0.001928  5.8263    0.003313    0.002243       
LBFGS(G)    28      1    0.003816    0.007011   0.002008  5.7974    0.002509    0.001877       
LBFGS(G)    29      1    0.003903    0.034765   0.007125  5.7490    0.003349    0.001486       
LBFGS(G)    30      1    0.003878    0.003437   0.001332  5.7620    0.001437    0.001003       
LBFGS(G)    31      1    0.003882    0.003634   0.001135  5.7594    0.001272    0.000906       
LBFGS(G)    32      1    0.003890    0.007627   0.002049  5.7489    0.001108    0.000822       
LBFGS(G)    33      1    0.003861    0.007504   0.002160  5.7495    0.001751    0.001356       
LBFGS(G)    34      1    0.003762    0.019734   0.003364  5.7732    0.002474    0.001806       
LBFGS(G)    35      1    0.003713    0.007846   0.002200  5.7892    0.002878    0.001897       
LBFGS(G)    36      1    0.003751    0.014642   0.002412  5.7868    0.003199    0.001566       
LBFGS(G)    37      1    0.003772    0.013112   0.001857  5.7877    0.002586    0.001513       
LBFGS(G)    38      1    0.003843    0.006420   0.001965  5.7983    0.001836    0.001327       
LBFGS(G)    39      1    0.003889    0.017728   0.003474  5.8246    0.002427    0.001292       
LBFGS(G)    40      1    0.003879    0.005058   0.001523  5.8216    0.002139    0.001098       
LBFGS(G)    41      1    0.003866    0.005262   0.001473  5.8198    0.001804    0.000944       
LBFGS(G)    42      1    0.003848    0.009823   0.002090  5.8179    0.001136    0.000916       
LBFGS(G)    43      1    0.003828    0.023564   0.003218  5.8253    0.001818    0.001270       
LBFGS(G)    44      1    0.003822    0.010995   0.002191  5.8303    0.001534    0.001154       
LBFGS(G)    45      1    0.003819    0.004886   0.001236  5.8279    0.001307    0.000936       
LBFGS(G)    46      1    0.003815    0.002292   0.000746  5.8292    0.001105    0.000741       
LBFGS(G)    47      1    0.003809    0.004313   0.000924  5.8364    0.000928    0.000731       
LBFGS(G)    48      1    0.003804    0.014626   0.002765  5.8700    0.001472    0.001074       
LBFGS(G)    49      1    0.003799    0.002987   0.001224  5.8789    0.001150    0.000880       
LBFGS(G)    50      1    0.003794    0.005163   0.001224  5.8856    0.000788    0.000680       
LBFGS(G)    51      1    0.003789    0.008749   0.001519  5.9095    0.000913    0.000714       
LBFGS(G)    52      1    0.003784    0.020381   0.003205  5.9280    0.001114    0.000788       
LBFGS(G)    53      1    0.003782    0.009136   0.001575  5.9314    0.001044    0.000726       
LBFGS(G)    54      1    0.003776    0.003445   0.001093  5.9483    0.000872    0.000610       
LBFGS(G)    55      1    0.003768    0.011325   0.001933  5.9830    0.000625    0.000524       
LBFGS(G)    56      1    0.003763    0.007222   0.001570  6.0514    0.001353    0.000859       
LBFGS(G)    57      1    0.003759    0.015777   0.002365  6.1051    0.001297    0.000801       
LBFGS(G)    58      1    0.003759    0.006033   0.001443  6.1445    0.001041    0.000747       
LBFGS(G)    59      1    0.003763    0.004524   0.001443  6.1915    0.001320    0.000889       
LBFGS(G)    60      1    0.003802    0.007337   0.002586  6.3691    0.002444    0.001764       
LBFGS(G)    61      1    0.003847    0.012602   0.003430  6.6022    0.002353    0.002112       
LBFGS(G)    62      1    0.003838    0.033953   0.006936  6.7280    0.002576    0.001606       
LBFGS(G)    63      1    0.003825    0.008886   0.002277  6.6529    0.002290    0.001542       
LBFGS(G)    64      1    0.003815    0.004354   0.001387  6.6453    0.002341    0.001397       
LBFGS(G)    65      1    0.003802    0.008361   0.001960  6.6520    0.002666    0.001436       
LBFGS(G)    66      1    0.003792    0.004527   0.001752  6.6481    0.002729    0.001750       
LBFGS(G)    67      1    0.003751    0.017109   0.003640  6.6335    0.002829    0.001410       
LBFGS(G)    68      1    0.003734    0.008878   0.002027  6.6224    0.002254    0.001395       
LBFGS(G)    69      1    0.003731    0.004795   0.001356  6.6147    0.002042    0.001264       
LBFGS(G)    70      1    0.003726    0.006084   0.001382  6.5832    0.002022    0.001115       
LBFGS(G)    71      1    0.003732    0.005223   0.001642  6.5477    0.002051    0.001298       
LBFGS(G)    72      1    0.003734    0.012487   0.002749  6.5194    0.002226    0.001136       
LBFGS(G)    73      1    0.003732    0.004936   0.001434  6.5165    0.001961    0.001012       
LBFGS(G)    74      1    0.003737    0.003558   0.001115  6.4920    0.001520    0.000811       
LBFGS(G)    75      1    0.003751    0.005147   0.001641  6.4697    0.001321    0.000974       
LBFGS(G)    76      1    0.003790    0.004286   0.001615  6.4517    0.002221    0.001297       
LBFGS(G)    77      1    0.003802    0.023115   0.003985  6.4580    0.005769    0.002514       
LBFGS(G)    78      1    0.003781    0.008321   0.001593  6.4476    0.003190    0.001335       
LBFGS(G)    79      1    0.003776    0.003641   0.000828  6.4455    0.000837    0.000478       

                                .--------------------.
          ----------------------| CI-NEB convergence |-------------------------
          Item                value                   Tolerance       Converged
          ---------------------------------------------------------------------
          RMS(Fp)             0.0008283197            0.0500000000      YES
          MAX(|Fp|)           0.0036407590            0.1000000000      YES
          RMS(FCI)            0.0004775428            0.0005000000      YES
          MAX(|FCI|)          0.0008374448            0.0010000000      YES
          ---------------------------------------------------------------------

The elastic band and climbing image have converged succesfully to a MEP in 79 iterations!


                    *********************H U R R A Y*********************
                    ***        THE NEB OPTIMIZATION HAS CONVERGED     ***
                    *****************************************************



---------------------------------------------------------------
                         PATH SUMMARY              
---------------------------------------------------------------
All forces in Eh/Bohr.

Image Dist.(Ang.)    E(Eh)   dE(kcal/mol)  max(|Fp|)  RMS(Fp)
  0     0.000    -340.44079      0.00       0.00146   0.00061
  1     0.274    -340.43702      2.37       0.00081   0.00047 <= CI
  2     0.541    -340.44650     -3.58       0.00088   0.00073
  3     0.795    -340.45908    -11.47       0.00296   0.00173
  4     1.052    -340.46814    -17.16       0.00162   0.00143
  5     1.300    -340.47379    -20.70       0.00068   0.00058
  6     1.553    -340.47708    -22.77       0.00136   0.00087
  7     1.812    -340.47886    -23.89       0.00149   0.00091
  8     2.069    -340.47969    -24.40       0.00073   0.00044
  9     2.333    -340.47999    -24.60       0.00085   0.00040
 10     2.602    -340.48019    -24.72       0.00067   0.00029
 11     2.869    -340.48039    -24.85       0.00067   0.00023
 12     3.141    -340.48054    -24.94       0.00022   0.00011
 13     3.411    -340.48057    -24.96       0.00126   0.00054

Straight line distance between images along the path:
        D( 0- 1) =   0.2743 Ang.
        D( 1- 2) =   0.2668 Ang.
        D( 2- 3) =   0.2536 Ang.
        D( 3- 4) =   0.2570 Ang.
        D( 4- 5) =   0.2485 Ang.
        D( 5- 6) =   0.2525 Ang.
        D( 6- 7) =   0.2588 Ang.
        D( 7- 8) =   0.2577 Ang.
        D( 8- 9) =   0.2635 Ang.
        D( 9-10) =   0.2690 Ang.
        D(10-11) =   0.2674 Ang.
        D(11-12) =   0.2717 Ang.
        D(12-13) =   0.2699 Ang.

---------------------------------------------------------------
               INFORMATION ABOUT SADDLE POINT     
---------------------------------------------------------------

Climbing image                            ....  1 
Energy                                    ....  -340.43701874 Eh
Max. abs. force                           ....  8.3744e-04 Eh/Bohr

-----------------------------------------
  SADDLE POINT (ANGSTROEM)
-----------------------------------------
C     -0.838295    -0.899623    -1.107336 
C      0.578373    -0.971944    -0.986837 
C      1.003429    -0.146524    -0.019408 
C      0.372978     0.735085     0.860785 
C     -1.008523     0.761499     0.694784 
C     -1.603324    -0.058380    -0.290517 
H     -1.355819    -1.511626    -1.853202 
N      2.593191    -0.187832     0.159593 
N      3.668914    -0.442649     0.031216 
H     -2.687918    -0.028644    -0.410934 
H     -1.621169     1.410002     1.321225 
H      0.898164     1.340636     1.600630 

-----------------------------------------
  FORCES (Eh/Bohr)
-----------------------------------------
C      0.000292    -0.000287    -0.000274 
C     -0.000512     0.000120     0.000060 
C      0.000600     0.000119     0.000216 
C     -0.000258     0.000225     0.000211 
C      0.000092     0.000186     0.000218 
C      0.000240    -0.000154    -0.000136 
H      0.000216     0.000330     0.000393 
N      0.000209     0.000075     0.000111 
N      0.000118    -0.000301    -0.000315 
H     -0.000837     0.000012    -0.000106 
H     -0.000014    -0.000203    -0.000225 
H     -0.000147    -0.000122    -0.000155 

-----------------------------------------
  UNIT TANGENT
-----------------------------------------
C     -0.041699    -0.008368    -0.015131 
C     -0.064704     0.157670     0.164193 
C     -0.287591     0.056937     0.022030 
C     -0.077636     0.040668     0.033749 
C     -0.116823    -0.001466    -0.018097 
C     -0.075618    -0.002574    -0.013488 
H      0.034101    -0.038167    -0.037213 
N      0.530811     0.176545     0.269130 
N      0.360221    -0.378461    -0.365262 
H     -0.066037    -0.031831    -0.044235 
H     -0.130126    -0.005098    -0.023985 
H     -0.064899     0.034146     0.028309 
 => Unit tangent is an approximation to the TS mode at the saddle point

Next a TS optimization is performed on the CI from the NEB run.

         *************************************************************
         *                       TS OPTIMIZATION                     *
         *************************************************************

Geometry optimization settings:
Update method            Update   .... Bofill
Choice of coordinates    CoordSys .... Z-matrix Internals
Initial Hessian          InHess   .... Read

Convergence Tolerances:
Energy Change            TolE     ....  1.0000e-06 Eh
Max. Gradient            TolMAXG  ....  1.0000e-04 Eh/bohr
RMS Gradient             TolRMSG  ....  3.0000e-05 Eh/bohr
Max. Displacement        TolMAXD  ....  1.0000e-03 bohr
RMS Displacement         TolRMSD  ....  6.0000e-04 bohr

------------------------------------------------------------------------------
                        ORCA OPTIMIZATION COORDINATE SETUP
------------------------------------------------------------------------------

The optimization will be done in new redundant internal coordinates
Making redundant internal coordinates   ...  (new redundants) done
Following TS mode number                ...     0
TS-active-atoms for coordinate setup... 7 8 
Evaluating the initial hessian          ... (Reading Exact Hessian)...  
InHessName: C6H4-N2-NEB-TS.appr.hess	The file <C6H4-N2-NEB-TS.appr.hess> is opened as a .hess file
done
done
Diagonalizing the Hessian               .... done
Dimension of the hessian                .... 54
Lowest eigenvalues of the non projected Hessian:
 -0.016057808 -0.000000000 -0.000000000 -0.000000000 -0.000000000
done
Evaluating the coordinates              ...  done
Calculating the B-matrix                .... done
Calculating the G-matrix                .... done
Diagonalizing the G-matrix              .... done
The first mode is                       ....   24
The number of degrees of freedom        ....   30

    -----------------------------------------------------------------
                    Redundant Internal Coordinates


    -----------------------------------------------------------------
         Definition                    Initial Value    d2E/dq (diagonal element)
    -----------------------------------------------------------------
      1. B(C   1,C   0)                  1.4236         0.513119   
      2. B(C   2,C   1)                  1.3409         0.392269   
      3. B(C   3,C   2)                  1.3962         0.369765   
      4. B(C   4,C   3)                  1.3917         0.688925   
      5. B(C   5,C   4)                  1.4131         0.530976   
      6. B(C   5,C   0)                  1.4001         0.572675   
      7. B(H   6,C   0)                  1.0949         0.354800   
      8. B(N   7,C   3)                  2.5046         0.260046   
      9. B(N   7,C   1)                  2.4472         0.115779   
     10. B(N   7,C   2)                  1.6003         0.121429   
     11. B(N   8,C   2)                  2.6824         0.290606   
     12. B(N   8,N   7)                  1.1129         0.661306   
     13. B(H   9,C   5)                  1.0917         0.358821   
     14. B(H  10,C   4)                  1.0901         0.362402   
     15. B(H  11,C   3)                  1.0908         0.359013   
     16. A(C   5,C   0,H   6)          118.3618         0.217766   
     17. A(C   1,C   0,C   5)          121.6616         0.161921   
     18. A(C   1,C   0,H   6)          119.9766         0.215957   
     19. A(C   0,C   1,C   2)          110.1971         0.227717   
     20. A(C   3,C   2,N   7)          113.2249         0.226653   
     21. A(C   1,C   2,N   7)          112.3162         0.118825   
     22. A(C   1,C   2,C   3)          134.4589         0.178321   
     23. A(C   2,C   3,C   4)          112.6452         0.146555   
     24. A(C   4,C   3,H  11)          123.2506         0.218113   
     25. A(C   2,C   3,H  11)          124.1043         0.211323   
     26. A(C   3,C   4,H  10)          120.0423         0.219236   
     27. A(C   5,C   4,H  10)          120.6171         0.231989   
     28. A(C   3,C   4,C   5)          119.3407         0.161266   
     29. A(C   4,C   5,H   9)          118.6402         0.216288   
     30. A(C   0,C   5,H   9)          119.6633         0.213877   
     31. A(C   0,C   5,C   4)          121.6965         0.159225   
     32. A(C   2,N   7,N   8)          162.4008         0.428374   
     33. D(C   2,C   1,C   0,H   6)    180.0000         0.010680   
     34. D(C   2,C   1,C   0,C   5)     -0.0004         0.008385   
     35. D(N   7,C   2,C   1,C   0)   -179.9993         0.026867   
     36. D(C   3,C   2,C   1,C   0)      0.0004         0.006807   
     37. D(C   4,C   3,C   2,N   7)    179.9993         0.019973   
     38. D(H  11,C   3,C   2,C   1)   -179.9997         0.008172   
     39. D(C   4,C   3,C   2,C   1)     -0.0004         0.008072   
     40. D(H  11,C   3,C   2,N   7)     -0.0001         0.022135   
     41. D(H  10,C   4,C   3,H  11)     -0.0007         0.011731   
     42. D(H  10,C   4,C   3,C   2)    180.0000         0.009158   
     43. D(C   5,C   4,C   3,H  11)    179.9997         0.010006   
     44. D(C   5,C   4,C   3,C   2)      0.0003         0.009287   
     45. D(H   9,C   5,C   0,C   1)   -179.9993         0.009772   
     46. D(C   4,C   5,C   0,H   6)   -179.9999         0.010383   
     47. D(C   4,C   5,C   0,C   1)      0.0004         0.009499   
     48. D(H   9,C   5,C   4,H  10)     -0.0003         0.010728   
     49. D(H   9,C   5,C   4,C   3)    179.9994         0.010092   
     50. D(C   0,C   5,C   4,H  10)    179.9999         0.008867   
     51. D(C   0,C   5,C   4,C   3)     -0.0004         0.009426   
     52. D(H   9,C   5,C   0,H   6)      0.0003         0.012140   
     53. D(N   8,N   7,C   2,C   3)   -179.9890         0.094527   
     54. D(N   8,N   7,C   2,C   1)      0.0107         0.156238   
    -----------------------------------------------------------------

Number of atoms                         .... 12
Number of degrees of freedom            .... 54

         *************************************************************
         *                GEOMETRY OPTIMIZATION CYCLE   1            *
         *************************************************************


           ************************************************************
           *        Program running with 42 parallel MPI-processes    *
           *            working without local directories             *
           ************************************************************
------------------------------------------------------------------------------
                           ORCA GTO INTEGRAL CALCULATION
------------------------------------------------------------------------------

                         BASIS SET STATISTICS AND STARTUP INFO

 # of primitive gaussian shells          ...  228
 # of primitive gaussian functions       ...  388
 # of contracted shells                  ...   92
 # of contracted basis functions         ...  220
 Highest angular momentum                ...    2
 Maximum contraction depth               ...    8
 Integral package used                   ... LIBINT
 Integral threshhold            Thresh   ...  2.500e-11
 Primitive cut-off              TCut     ...  2.500e-12


------------------------------ INTEGRAL EVALUATION ----------------------------


 * One electron integrals 
 Pre-screening matrix                    ... done
 Shell pair data                         ... done (   0.003 sec)



           ************************************************************
           *        Program running with 42 parallel MPI-processes    *
           *            working without local directories             *
           ************************************************************
-------------------------------------------------------------------------------
                                 ORCA SCF
-------------------------------------------------------------------------------

------------
SCF SETTINGS
------------
Hamiltonian:
 Density Functional     Method          .... DFT(GTOs)
 Exchange Functional    Exchange        .... B88
   X-Alpha parameter    XAlpha          ....  0.666667
   Becke's b parameter  XBeta           ....  0.004200
 Correlation Functional Correlation     .... LYP
 LDA part of GGA corr.  LDAOpt          .... VWN-3
 Gradients option       PostSCFGGA      .... off
 Hybrid DFT is turned on
   Fraction HF Exchange ScalHFX         ....  0.200000
   Scaling of DF-GGA-X  ScalDFX         ....  0.720000
   Scaling of DF-GGA-C  ScalDFC         ....  0.810000
   Scaling of DF-LDA-C  ScalLDAC        ....  1.000000
   Perturbative correction              ....  0.000000
   Density functional embedding theory  .... OFF
   NL short-range parameter             ....  4.800000


General Settings:
 Integral files         IntName         .... C6H4-N2-NEB-TS
 Hartree-Fock type      HFTyp           .... RHF
 Total Charge           Charge          ....    0
 Multiplicity           Mult            ....    1
 Number of Electrons    NEL             ....   54
 Basis Dimension        Dim             ....  220
 Nuclear Repulsion      ENuc            ....    298.7235578898 Eh

Convergence Acceleration:
 DIIS                   CNVDIIS         .... on
   Start iteration      DIISMaxIt       ....    12
   Startup error        DIISStart       ....  0.200000
   # of expansion vecs  DIISMaxEq       ....     5
   Bias factor          DIISBfac        ....   1.050
   Max. coefficient     DIISMaxC        ....  10.000
 Newton-Raphson         CNVNR           .... off
 SOSCF                  CNVSOSCF        .... on
   Start iteration      SOSCFMaxIt      ....   150
   Startup grad/error   SOSCFStart      ....  0.003300
 Level Shifting         CNVShift        .... on
   Level shift para.    LevelShift      ....    0.2500
   Turn off err/grad.   ShiftErr        ....    0.0010
 Zerner damping         CNVZerner       .... off
 Static damping         CNVDamp         .... on
   Fraction old density DampFac         ....    0.7000
   Max. Damping (<1)    DampMax         ....    0.9800
   Min. Damping (>=0)   DampMin         ....    0.0000
   Turn off err/grad.   DampErr         ....    0.1000
 Fernandez-Rico         CNVRico         .... off

SCF Procedure:
 Maximum # iterations   MaxIter         ....  1000
 SCF integral mode      SCFMode         .... Direct
   Integral package                     .... LIBINT
 Reset frequency        DirectResetFreq ....    20
 Integral Threshold     Thresh          ....  2.500e-11 Eh
 Primitive CutOff       TCut            ....  2.500e-12 Eh

Convergence Tolerance:
 Convergence Check Mode ConvCheckMode   .... Total+1el-Energy
 Convergence forced     ConvForced      .... 0
 Energy Change          TolE            ....  1.000e-08 Eh
 1-El. energy change                    ....  1.000e-05 Eh
 Orbital Gradient       TolG            ....  1.000e-05
 Orbital Rotation angle TolX            ....  1.000e-05
 DIIS Error             TolErr          ....  5.000e-07


Diagonalization of the overlap matrix:
Smallest eigenvalue                        ... 5.117e-06
Time for diagonalization                   ...    0.012 sec
Threshold for overlap eigenvalues          ... 1.000e-08
Number of eigenvalues below threshold      ... 0
Time for construction of square roots      ...    0.013 sec
Total time needed                          ...    0.025 sec

---------------------
INITIAL GUESS: MOREAD
---------------------
Guess MOs are being read from file: C6H4-N2-NEB-TS.gbw
Input Geometry matches current geometry (good)
Input basis set matches current basis set (good)
MOs were renormalized
MOs were reorthogonalized (Cholesky)
                      ------------------
                      INITIAL GUESS DONE (   0.0 sec)
                      ------------------
-------------------
DFT GRID GENERATION
-------------------

General Integration Accuracy     IntAcc      ...  5.670
Radial Grid Type                 RadialGrid  ... Gauss-Chebyshev
Angular Grid (max. acc.)         AngularGrid ... Lebedev-770
Angular grid pruning method      GridPruning ... 3 (G Style)
Weight generation scheme         WeightScheme... Becke
Basis function cutoff            BFCut       ...    1.0000e-11
Integration weight cutoff        WCut        ...    1.0000e-14
Grids for H and He will be reduced by one unit

# of grid points (after initial pruning)     ... 271616 (   0.0 sec)
# of grid points (after weights+screening)   ... 252486 (   0.2 sec)
nearest neighbour list constructed           ...    0.0 sec
Grid point re-assignment to atoms done       ...    0.1 sec
Grid point division into batches done        ...    5.8 sec
Reduced shell lists constructed in    5.9 sec

Total number of grid points                  ...   252486
Total number of batches                      ...     3952
Average number of points per batch           ...       63
Average number of grid points per atom       ...    21040
Average number of shells per batch           ...    78.81 (85.67%)
Average number of basis functions per batch  ...   188.29 (85.59%)
Average number of large shells per batch     ...    68.25 (86.60%)
Average number of large basis fcns per batch ...   164.85 (87.55%)
Maximum spatial batch extension              ...   3.09, 11.87, 11.27 au
Average spatial batch extension              ...   0.03,  0.04,  0.04 au

Time for grid setup =    7.357 sec

--------------
SCF ITERATIONS
--------------
ITER       Energy         Delta-E        Max-DP      RMS-DP      [F,P]     Damp
               ***  Starting incremental Fock matrix formation  ***
  0   -340.3106243637   0.000000000000 0.27873634  0.00493405  0.1613921 0.7000
  1   -340.3435726291  -0.032948265388 0.24714764  0.00435714  0.1138991 0.7000
                               ***Turning on DIIS***
  2   -340.3690488011  -0.025476172005 0.64534919  0.01100972  0.0800059 0.0000
  3   -340.4338730277  -0.064824226593 0.04764298  0.00110591  0.0090110 0.0000
  4   -340.4356521985  -0.001779170794 0.02603816  0.00051869  0.0033348 0.0000
  5   -340.4363043624  -0.000652163976 0.01650676  0.00043465  0.0034534 0.0000
  6   -340.4366214868  -0.000317124363 0.01266303  0.00028714  0.0048558 0.0000
                      *** Initiating the SOSCF procedure ***
                           *** Shutting down DIIS ***
                      *** Re-Reading the Fockian *** 
                      *** Removing any level shift *** 
ITER      Energy       Delta-E        Grad      Rot      Max-DP    RMS-DP
  7   -340.43681777  -0.0001962783  0.002873  0.002873  0.010153  0.000225
               *** Restarting incremental Fock matrix formation ***
  8   -340.43691484  -0.0000970782  0.001953  0.018444  0.011737  0.000375
  9   -340.43697996  -0.0000651171  0.001476  0.008423  0.017640  0.000385
 10   -340.43698636  -0.0000064004  0.001462  0.005882  0.008066  0.000209
 11   -340.43701384  -0.0000274774  0.000535  0.002012  0.005852  0.000136
 12   -340.43701144   0.0000023981  0.000546  0.001274  0.005418  0.000108
 13   -340.43701805  -0.0000066100  0.000202  0.001061  0.004979  0.000100
 14   -340.43701655   0.0000014955  0.000353  0.000829  0.002443  0.000050
 15   -340.43701871  -0.0000021553  0.000026  0.000115  0.015493  0.000253
 16   -340.43701869   0.0000000153  0.000045  0.000084  0.002266  0.000048
 17   -340.43701873  -0.0000000379  0.000007  0.000017  0.009742  0.000170
 18   -340.43701873   0.0000000003  0.000006  0.000010  0.001342  0.000037
                  ***Gradient check signals convergence***
              ***Rediagonalizing the Fockian in SOSCF/NRSCF***

               *****************************************************
               *                     SUCCESS                       *
               *           SCF CONVERGED AFTER  19 CYCLES          *
               *****************************************************


----------------
TOTAL SCF ENERGY
----------------

Total Energy       :         -340.43701873 Eh           -9263.76224 eV

Components:
[...]
Weight generation scheme         WeightScheme... Becke
Basis function cutoff            BFCut       ...    1.0000e-11
Integration weight cutoff        WCut        ...    1.0000e-14
Grids for H and He will be reduced by one unit

# of grid points (after initial pruning)     ... 271616 (   0.0 sec)
# of grid points (after weights+screening)   ... 252475 (   0.2 sec)
nearest neighbour list constructed           ...    0.0 sec
Grid point re-assignment to atoms done       ...    0.1 sec
Grid point division into batches done        ...    5.7 sec
Reduced shell lists constructed in    5.8 sec

Total number of grid points                  ...   252475
Total number of batches                      ...     3951
Average number of points per batch           ...       63
Average number of grid points per atom       ...    21040
Average number of shells per batch           ...    78.85 (85.71%)
Average number of basis functions per batch  ...   188.46 (85.66%)
Average number of large shells per batch     ...    68.28 (86.59%)
Average number of large basis fcns per batch ...   164.99 (87.55%)
Maximum spatial batch extension              ...   3.10, 11.87, 11.27 au
Average spatial batch extension              ...   0.03,  0.04,  0.04 au

Time for grid setup =    7.451 sec

--------------
SCF ITERATIONS
--------------
ITER       Energy         Delta-E        Max-DP      RMS-DP      [F,P]     Damp
               ***  Starting incremental Fock matrix formation  ***
                      *** Initiating the SOSCF procedure ***
                      *** Re-Reading the Fockian *** 
                      *** Removing any level shift *** 
ITER      Energy       Delta-E        Grad      Rot      Max-DP    RMS-DP
  0   -340.43703096 -340.4370309574  0.000152  0.000152  0.023311  0.000354
               *** Restarting incremental Fock matrix formation ***
  1   -340.43703131  -0.0000003560  0.000035  0.000047  0.013373  0.000218
  2   -340.43703133  -0.0000000164  0.000029  0.000121  0.002263  0.000058
  3   -340.43703133  -0.0000000018  0.000023  0.000062  0.009632  0.000188
  4   -340.43703134  -0.0000000127  0.000005  0.000019  0.011014  0.000209
  5   -340.43703134   0.0000000003  0.000008  0.000015  0.002513  0.000043
                 **** Energy Check signals convergence ****
              ***Rediagonalizing the Fockian in SOSCF/NRSCF***

               *****************************************************
               *                     SUCCESS                       *
               *           SCF CONVERGED AFTER   6 CYCLES          *
               *****************************************************


----------------
TOTAL SCF ENERGY
----------------

Total Energy       :         -340.43703135 Eh           -9263.76258 eV

Components:
Nuclear Repulsion  :          298.77166866 Eh            8129.99043 eV
Electronic Energy  :         -639.20870001 Eh          -17393.75301 eV
One Electron Energy:        -1049.51600002 Eh          -28558.78226 eV
Two Electron Energy:          410.30730001 Eh           11165.02925 eV

Virial components:
Potential Energy   :         -678.68026185 Eh          -18467.82881 eV
Kinetic Energy     :          338.24323051 Eh            9204.06623 eV
Virial Ratio       :            2.00648587


DFT components:
N(Alpha)           :       26.999999887147 electrons
N(Beta)            :       26.999999887147 electrons
N(Total)           :       53.999999774293 electrons
E(X)               :      -36.201692582488 Eh       
E(C)               :       -2.350322428520 Eh       
E(XC)              :      -38.552015011008 Eh       
DFET-embed. en.    :        0.000000000000 Eh       

---------------
SCF CONVERGENCE
---------------

  Last Energy change         ...   -1.6899e-09  Tolerance :   1.0000e-08
  Last MAX-Density change    ...    7.2670e-03  Tolerance :   1.0000e-07
  Last RMS-Density change    ...    1.2963e-04  Tolerance :   5.0000e-09
  Last Orbital Gradient      ...    3.5289e-06  Tolerance :   1.0000e-05
  Last Orbital Rotation      ...    6.0459e-06  Tolerance :   1.0000e-05

             **** THE GBW FILE WAS UPDATED (C6H4-N2-NEB-TS.gbw) ****
             **** DENSITY FILE WAS UPDATED (C6H4-N2-NEB-TS.scfp.tmp) ****
             **** ENERGY FILE WAS UPDATED (C6H4-N2-NEB-TS.en.tmp) ****
----------------
ORBITAL ENERGIES
----------------

  NO   OCC          E(Eh)            E(eV) 
   0   2.0000     -14.518580      -395.0706 
   1   2.0000     -14.492313      -394.3559 
   2   2.0000     -10.263333      -279.2795 
   3   2.0000     -10.221549      -278.1425 
   4   2.0000     -10.206730      -277.7392 
   5   2.0000     -10.203220      -277.6437 
   6   2.0000     -10.197554      -277.4895 
   7   2.0000     -10.161111      -276.4979 
   8   2.0000      -1.180906       -32.1341 
   9   2.0000      -0.882661       -24.0184 
  10   2.0000      -0.793011       -21.5789 
  11   2.0000      -0.756788       -20.5932 
  12   2.0000      -0.679054       -18.4780 
  13   2.0000      -0.619871       -16.8675 
  14   2.0000      -0.568974       -15.4826 
  15   2.0000      -0.529109       -14.3978 
  16   2.0000      -0.525665       -14.3041 
  17   2.0000      -0.513723       -13.9791 
  18   2.0000      -0.489895       -13.3307 
  19   2.0000      -0.455701       -12.4003 
  20   2.0000      -0.440017       -11.9735 
  21   2.0000      -0.396925       -10.8009 
  22   2.0000      -0.383977       -10.4485 
  23   2.0000      -0.363014        -9.8781 
  24   2.0000      -0.276480        -7.5234 
  25   2.0000      -0.259222        -7.0538 
  26   2.0000      -0.206914        -5.6304 
  27   0.0000      -0.100443        -2.7332 
  28   0.0000      -0.095605        -2.6015 
  29   0.0000      -0.023868        -0.6495 
  30   0.0000      -0.015091        -0.4106 
  31   0.0000       0.000372         0.0101 
  32   0.0000       0.004223         0.1149 
  33   0.0000       0.014236         0.3874 
  34   0.0000       0.031929         0.8688 
  35   0.0000       0.035174         0.9571 
  36   0.0000       0.042260         1.1500 
  37   0.0000       0.046687         1.2704 
  38   0.0000       0.065577         1.7844 
  39   0.0000       0.071634         1.9493 
  40   0.0000       0.071673         1.9503 
  41   0.0000       0.081778         2.2253 
  42   0.0000       0.084226         2.2919 
  43   0.0000       0.089600         2.4381 
  44   0.0000       0.096376         2.6225 
  45   0.0000       0.099699         2.7129 
  46   0.0000       0.109491         2.9794 
  47   0.0000       0.112160         3.0520 
  48   0.0000       0.117769         3.2047 
  49   0.0000       0.119575         3.2538 
  50   0.0000       0.127473         3.4687 
  51   0.0000       0.130788         3.5589 
  52   0.0000       0.133506         3.6329 
  53   0.0000       0.136220         3.7067 
  54   0.0000       0.144565         3.9338 
  55   0.0000       0.150250         4.0885 
  56   0.0000       0.181780         4.9465 
  57   0.0000       0.186718         5.0809 
  58   0.0000       0.192611         5.2412 
  59   0.0000       0.195960         5.3323 
  60   0.0000       0.200687         5.4610 
  61   0.0000       0.216475         5.8906 
  62   0.0000       0.223330         6.0771 
  63   0.0000       0.232090         6.3155 
  64   0.0000       0.234659         6.3854 
  65   0.0000       0.244073         6.6416 
  66   0.0000       0.251653         6.8478 
  67   0.0000       0.253601         6.9008 
  68   0.0000       0.266104         7.2411 
  69   0.0000       0.272562         7.4168 
  70   0.0000       0.276299         7.5185 
  71   0.0000       0.282832         7.6962 
  72   0.0000       0.285633         7.7725 
  73   0.0000       0.294298         8.0083 
  74   0.0000       0.302884         8.2419 
  75   0.0000       0.320787         8.7290 
  76   0.0000       0.323334         8.7984 
  77   0.0000       0.324171         8.8211 
  78   0.0000       0.348770         9.4905 
  79   0.0000       0.357271         9.7218 
  80   0.0000       0.379012        10.3135 
  81   0.0000       0.387440        10.5428 
  82   0.0000       0.403812        10.9883 
  83   0.0000       0.409551        11.1445 
  84   0.0000       0.421265        11.4632 
  85   0.0000       0.432397        11.7661 
  86   0.0000       0.439971        11.9722 
  87   0.0000       0.447952        12.1894 
  88   0.0000       0.462102        12.5744 
  89   0.0000       0.480035        13.0624 
  90   0.0000       0.492221        13.3940 
  91   0.0000       0.499701        13.5976 
  92   0.0000       0.519388        14.1333 
  93   0.0000       0.522333        14.2134 
  94   0.0000       0.534747        14.5512 
  95   0.0000       0.535556        14.5732 
  96   0.0000       0.545475        14.8431 
  97   0.0000       0.552027        15.0214 
  98   0.0000       0.561814        15.2877 
  99   0.0000       0.562482        15.3059 
 100   0.0000       0.571791        15.5592 
 101   0.0000       0.578828        15.7507 
 102   0.0000       0.588681        16.0188 
 103   0.0000       0.608063        16.5462 
 104   0.0000       0.611955        16.6522 
 105   0.0000       0.621918        16.9233 
 106   0.0000       0.630510        17.1570 
 107   0.0000       0.633261        17.2319 
 108   0.0000       0.639245        17.3947 
 109   0.0000       0.660329        17.9685 
 110   0.0000       0.677051        18.4235 
 111   0.0000       0.686906        18.6917 
 112   0.0000       0.708299        19.2738 
 113   0.0000       0.713104        19.4045 
 114   0.0000       0.723569        19.6893 
 115   0.0000       0.724761        19.7217 
 116   0.0000       0.736515        20.0416 
 117   0.0000       0.738094        20.0846 
 118   0.0000       0.742116        20.1940 
 119   0.0000       0.744882        20.2693 
 120   0.0000       0.755462        20.5572 
 121   0.0000       0.766907        20.8686 
 122   0.0000       0.779599        21.2140 
 123   0.0000       0.782288        21.2871 
 124   0.0000       0.796124        21.6636 
 125   0.0000       0.797171        21.6921 
 126   0.0000       0.813496        22.1364 
 127   0.0000       0.835448        22.7337 
 128   0.0000       0.850677        23.1481 
 129   0.0000       0.858001        23.3474 
 130   0.0000       0.875254        23.8169 
 131   0.0000       0.884781        24.0761 
 132   0.0000       0.915745        24.9187 
 133   0.0000       0.926245        25.2044 
 134   0.0000       0.947342        25.7785 
 135   0.0000       0.959672        26.1140 
 136   0.0000       0.989100        26.9148 
 137   0.0000       1.015121        27.6228 
 138   0.0000       1.049501        28.5584 
 139   0.0000       1.100630        29.9497 
 140   0.0000       1.108615        30.1670 
 141   0.0000       1.137988        30.9662 
 142   0.0000       1.175907        31.9981 
 143   0.0000       1.184644        32.2358 
 144   0.0000       1.225111        33.3370 
 145   0.0000       1.259254        34.2660 
 146   0.0000       1.271340        34.5949 
 147   0.0000       1.283298        34.9203 
 148   0.0000       1.294026        35.2122 
 149   0.0000       1.311642        35.6916 
 150   0.0000       1.333281        36.2804 
 151   0.0000       1.361451        37.0470 
 152   0.0000       1.370442        37.2916 
 153   0.0000       1.371545        37.3216 
 154   0.0000       1.386607        37.7315 
 155   0.0000       1.414386        38.4874 
 156   0.0000       1.427257        38.8376 
 157   0.0000       1.429680        38.9036 
 158   0.0000       1.444522        39.3074 
 159   0.0000       1.458454        39.6865 
 160   0.0000       1.486459        40.4486 
 161   0.0000       1.491979        40.5988 
 162   0.0000       1.509218        41.0679 
 163   0.0000       1.530154        41.6376 
 164   0.0000       1.546558        42.0840 
 165   0.0000       1.584936        43.1283 
 166   0.0000       1.602448        43.6048 
 167   0.0000       1.621543        44.1244 
 168   0.0000       1.658582        45.1323 
 169   0.0000       1.670375        45.4532 
 170   0.0000       1.670798        45.4647 
 171   0.0000       1.683902        45.8213 
 172   0.0000       1.712324        46.5947 
 173   0.0000       1.734161        47.1889 
 174   0.0000       1.747402        47.5492 
 175   0.0000       1.770419        48.1755 
 176   0.0000       1.797618        48.9157 
 177   0.0000       1.830520        49.8110 
 178   0.0000       1.873562        50.9822 
 179   0.0000       1.886107        51.3236 
 180   0.0000       1.911408        52.0121 
 181   0.0000       1.937192        52.7137 
 182   0.0000       1.938605        52.7521 
 183   0.0000       1.957600        53.2690 
 184   0.0000       1.962349        53.3982 
 185   0.0000       2.011707        54.7413 
 186   0.0000       2.026419        55.1417 
 187   0.0000       2.038799        55.4785 
 188   0.0000       2.055851        55.9425 
 189   0.0000       2.059159        56.0326 
 190   0.0000       2.079186        56.5775 
 191   0.0000       2.094383        56.9911 
 192   0.0000       2.150037        58.5055 
 193   0.0000       2.205566        60.0165 
 194   0.0000       2.223670        60.5091 
 195   0.0000       2.261623        61.5419 
 196   0.0000       2.265320        61.6425 
 197   0.0000       2.301026        62.6141 
 198   0.0000       2.306431        62.7612 
 199   0.0000       2.354927        64.0808 
 200   0.0000       2.362614        64.2900 
 201   0.0000       2.449632        66.6579 
 202   0.0000       2.468954        67.1836 
 203   0.0000       2.484984        67.6199 
 204   0.0000       2.570854        69.9565 
 205   0.0000       2.593778        70.5803 
 206   0.0000       2.654663        72.2371 
 207   0.0000       2.725220        74.1570 
 208   0.0000       2.759040        75.0773 
 209   0.0000       2.824240        76.8515 
 210   0.0000       2.829509        76.9949 
 211   0.0000       2.836685        77.1901 
 212   0.0000       2.907731        79.1234 
 213   0.0000       2.996674        81.5436 
 214   0.0000       3.029620        82.4401 
 215   0.0000       3.071155        83.5704 
 216   0.0000       3.124478        85.0214 
 217   0.0000       3.304340        89.9157 
 218   0.0000       3.494015        95.0770 
 219   0.0000       3.817629       103.8830 
-------
TIMINGS
-------

Total SCF time: 0 days 0 hours 0 min 16 sec 

Total time                  ....      16.372 sec
Sum of individual times     ....      15.842 sec  ( 96.8%)

Fock matrix formation       ....       8.147 sec  ( 49.8%)
  XC integration            ....       1.445 sec  ( 17.7% of F)
    Basis function eval.    ....       0.327 sec  ( 22.6% of XC)
    Density eval.           ....       0.297 sec  ( 20.6% of XC)
    XC-Functional eval.     ....       0.048 sec  (  3.3% of XC)
    XC-Potential eval.      ....       0.299 sec  ( 20.7% of XC)
Diagonalization             ....       0.018 sec  (  0.1%)
Density matrix formation    ....       0.066 sec  (  0.4%)
Population analysis         ....       0.000 sec  (  0.0%)
Initial guess               ....       0.037 sec  (  0.2%)
Orbital Transformation      ....       0.000 sec  (  0.0%)
Orbital Orthonormalization  ....       0.013 sec  (  0.1%)
DIIS solution               ....       0.005 sec  (  0.0%)
SOSCF solution              ....       0.118 sec  (  0.7%)
Grid generation             ....       7.451 sec  ( 45.5%)

-------------------------   --------------------
FINAL SINGLE POINT ENERGY      -340.437031345601
-------------------------   --------------------

                                *** OPTIMIZATION RUN DONE ***


                    ***********************HURRAY************************
                    ***        THE TS OPTIMIZATION HAS CONVERGED      ***
                    *****************************************************



---------------------------------------------------------------
                      PATH SUMMARY FOR NEB-TS             
---------------------------------------------------------------
All forces in Eh/Bohr. Global forces for TS.

Image     E(Eh)   dE(kcal/mol)  max(|Fp|)  RMS(Fp)
  0    -340.44079     0.00       0.00146   0.00061
  1    -340.43702     2.37       0.00081   0.00047 <= CI
 TS    -340.43703     2.36       0.00033   0.00013 <= TS
  2    -340.44650    -3.58       0.00088   0.00073
  3    -340.45908   -11.47       0.00296   0.00173
  4    -340.46814   -17.16       0.00162   0.00143
  5    -340.47379   -20.70       0.00068   0.00058
  6    -340.47708   -22.77       0.00136   0.00087
  7    -340.47886   -23.89       0.00149   0.00091
  8    -340.47969   -24.40       0.00073   0.00044
  9    -340.47999   -24.60       0.00085   0.00040
 10    -340.48019   -24.72       0.00067   0.00029
 11    -340.48039   -24.85       0.00067   0.00023
 12    -340.48054   -24.94       0.00022   0.00011
 13    -340.48057   -24.96       0.00126   0.00054
----------
STATISTICS
----------

For the individual parts of the NEB, NEB-CI or NEB-TS run:

Number of iterations:
     NEB                               ... 80  85.1%
     TS optimization                   ... 14  14.9%
Number of SCF / gradient calculations:
     NEB                               ... 962  98.6%
     TS optimization                   ... 14  1.4%

----------
 TIMINGS
----------

For the individual parts of the NEB, NEB-CI or NEB-TS run:

Total                                  ...    27259.467 sec
NEB                                    ...    26770.625 sec  98.2%
TS Optimization                        ...      488.842 sec  1.8%


                            ***************************************
                            *     ORCA property calculations      *
                            ***************************************

                                    ---------------------
                                    Active property flags
                                    ---------------------
   (+) Dipole Moment


------------------------------------------------------------------------------
                       ORCA ELECTRIC PROPERTIES CALCULATION
------------------------------------------------------------------------------

Dipole Moment Calculation                       ... on
Quadrupole Moment Calculation                   ... off
Polarizability Calculation                      ... off
GBWName                                         ... C6H4-N2-NEB-TS.gbw
Electron density file                           ... C6H4-N2-NEB-TS.scfp.tmp
The origin for moment calculation is the CENTER OF MASS  = ( 1.179284, -0.265079 -0.124945)

-------------
DIPOLE MOMENT
-------------
                                X             Y             Z
Electronic contribution:      6.96377      -0.83703       0.06281
Nuclear contribution   :     -6.78879       1.66103       0.86772
                        -----------------------------------------
Total Dipole Moment    :      0.17499       0.82400       0.93053
                        -----------------------------------------
Magnitude (a.u.)       :      1.25518
Magnitude (Debye)      :      3.19041



--------------------
Rotational spectrum 
--------------------
 
Rotational constants in cm-1:     0.188937     0.051582     0.040519 
Rotational constants in MHz :  5664.196283  1546.379570  1214.743121 

 Dipole components along the rotational axes: 
x,y,z [a.u.] :     0.165605     1.244206    -0.000020 
x,y,z [Debye]:     0.420933     3.162521    -0.000051 

 

Timings for individual modules:

Sum of individual times         ...      604.042 sec (=  10.067 min)
GTO integral calculation        ...       38.132 sec (=   0.636 min)   6.3 %
SCF iterations                  ...      435.580 sec (=   7.260 min)  72.1 %
SCF Gradient evaluation         ...      129.090 sec (=   2.151 min)  21.4 %
Geometry relaxation             ...        1.240 sec (=   0.021 min)   0.2 %
                             ****ORCA TERMINATED NORMALLY****
TOTAL RUN TIME: 0 days 7 hours 34 minutes 57 seconds 496 msec
