 Entering Gaussian System, Link 0=/home/ubuntu/g09/g09
 Input=2-NO2-C6H3-TS.gjf
 Output=2-NO2-C6H3-TS.log
 Initial command:
 /home/ubuntu/g09/l1.exe /home/ubuntu/g09/Gau-23726.inp -scrdir=/home/ubuntu/g09/
 Entering Link 1 = /home/ubuntu/g09/l1.exe PID=     23728.
  
 Copyright (c) 1988,1990,1992,1993,1995,1998,2003,2009,2010,
            Gaussian, Inc.  All Rights Reserved.
  
 This is part of the Gaussian(R) 09 program.  It is based on
 the Gaussian(R) 03 system (copyright 2003, Gaussian, Inc.),
 the Gaussian(R) 98 system (copyright 1998, Gaussian, Inc.),
 the Gaussian(R) 94 system (copyright 1995, Gaussian, Inc.),
 the Gaussian 92(TM) system (copyright 1992, Gaussian, Inc.),
 the Gaussian 90(TM) system (copyright 1990, Gaussian, Inc.),
 the Gaussian 88(TM) system (copyright 1988, Gaussian, Inc.),
 the Gaussian 86(TM) system (copyright 1986, Carnegie Mellon
 University), and the Gaussian 82(TM) system (copyright 1983,
 Carnegie Mellon University). Gaussian is a federally registered
 trademark of Gaussian, Inc.
  
 This software contains proprietary and confidential information,
 including trade secrets, belonging to Gaussian, Inc.
  
 This software is provided under written license and may be
 used, copied, transmitted, or stored only in accord with that
 written license.
  
 The following legend is applicable only to US Government
 contracts under FAR:
  
                    RESTRICTED RIGHTS LEGEND
  
 Use, reproduction and disclosure by the US Government is
 subject to restrictions as set forth in subparagraphs (a)
 and (c) of the Commercial Computer Software - Restricted
 Rights clause in FAR 52.227-19.
  
 Gaussian, Inc.
 340 Quinnipiac St., Bldg. 40, Wallingford CT 06492
  
  
 ---------------------------------------------------------------
 Warning -- This program may not be used in any manner that
 competes with the business of Gaussian, Inc. or will provide
 assistance to any competitor of Gaussian, Inc.  The licensee
 of this program is prohibited from giving any competitor of
 Gaussian, Inc. access to this program.  By using this program,
 the user acknowledges that Gaussian, Inc. is engaged in the
 business of creating and licensing software in the field of
 computational chemistry and represents and warrants to the
 licensee that it is not a competitor of Gaussian, Inc. and that
 it will not use this program in any manner prohibited above.
 ---------------------------------------------------------------
  

 Cite this work as:
 Gaussian 09, Revision B.01,
 M. J. Frisch, G. W. Trucks, H. B. Schlegel, G. E. Scuseria, 
 M. A. Robb, J. R. Cheeseman, G. Scalmani, V. Barone, B. Mennucci, 
 G. A. Petersson, H. Nakatsuji, M. Caricato, X. Li, H. P. Hratchian, 
 A. F. Izmaylov, J. Bloino, G. Zheng, J. L. Sonnenberg, M. Hada, 
 M. Ehara, K. Toyota, R. Fukuda, J. Hasegawa, M. Ishida, T. Nakajima, 
 Y. Honda, O. Kitao, H. Nakai, T. Vreven, J. A. Montgomery, Jr., 
 J. E. Peralta, F. Ogliaro, M. Bearpark, J. J. Heyd, E. Brothers, 
 K. N. Kudin, V. N. Staroverov, T. Keith, R. Kobayashi, J. Normand, 
 K. Raghavachari, A. Rendell, J. C. Burant, S. S. Iyengar, J. Tomasi, 
 M. Cossi, N. Rega, J. M. Millam, M. Klene, J. E. Knox, J. B. Cross, 
 V. Bakken, C. Adamo, J. Jaramillo, R. Gomperts, R. E. Stratmann, 
 O. Yazyev, A. J. Austin, R. Cammi, C. Pomelli, J. W. Ochterski, 
 R. L. Martin, K. Morokuma, V. G. Zakrzewski, G. A. Voth, 
 P. Salvador, J. J. Dannenberg, S. Dapprich, A. D. Daniels, 
 O. Farkas, J. B. Foresman, J. V. Ortiz, J. Cioslowski, 
 and D. J. Fox, Gaussian, Inc., Wallingford CT, 2010.
 
 ******************************************
 Gaussian 09:  EM64L-G09RevB.01 12-Aug-2010
                19-Dec-2018 
 ******************************************
 %chk=2-NO2-C6H3-TS.chk
 %mem=500MW
 %nproc=7
 Will use up to    7 processors via shared memory.
 ---------------------------------------------------------
 # rb3lyp/aug-cc-pVDZ opt=(ts,noeigen,calcfc) freq=noraman
 ---------------------------------------------------------
 1/5=1,10=4,11=1,14=-1,18=20,26=3,38=1/1,3;
 2/9=110,12=2,17=6,18=5,40=1/2;
 3/5=16,7=10,11=2,16=1,25=1,30=1,71=2,74=-5,116=1/1,2,3;
 4//1;
 5/5=2,38=5/2;
 8/6=4,10=90,11=11/1;
 11/6=1,8=1,9=11,15=111,16=1/1,2,10;
 10/6=1,7=6,13=1/2;
 6/7=2,8=2,9=2,10=2,28=1/1;
 7/10=1,18=20,25=1/1,2,3,16;
 1/5=1,10=4,11=1,14=-1,18=20/3(2);
 2/9=110/2;
 99//99;
 2/9=110/2;
 3/5=16,7=10,11=2,16=1,25=1,30=1,71=1,74=-5,116=1/1,2,3;
 4/5=5,16=3/1;
 5/5=2,38=5/2;
 7//1,2,3,16;
 1/5=1,11=1,14=-1,18=20/3(-5);
 2/9=110/2;
 6/7=2,8=2,9=2,10=2,19=2,28=1/1;
 99/9=1/99;
 ----------
 2-NO2-C6H3
 ----------
 Symbolic Z-matrix:
 Charge =  0 Multiplicity = 1
 C                    -1.89577   0.12282  -1.0673 
 C                    -0.47432   0.10821  -0.99508 
 C                    -0.01047   0.89409  -0.03033 
 C                    -0.67035   1.70929   0.89844 
 C                    -2.05949   1.69694   0.79614 
 C                    -2.66402   0.89861  -0.1923 
 H                    -2.4124   -0.48088  -1.8185 
 N                     1.61851   0.88855   0.06582 
 N                     2.6638    0.6185   -0.18957 
 H                    -3.75318   0.89393  -0.26656 
 H                    -2.64444   2.30453   1.48251 
 N                    -0.01526   2.52943   1.91605 
 O                     1.21949   2.49641   1.9549 
 O                    -0.7132    3.19797   2.6682 
 

 GradGradGradGradGradGradGradGradGradGradGradGradGradGradGradGradGradGrad
 Berny optimization.
 Initialization pass.
                           ----------------------------
                           !    Initial Parameters    !
                           ! (Angstroms and Degrees)  !
 --------------------------                            --------------------------
 ! Name  Definition              Value          Derivative Info.                !
 --------------------------------------------------------------------------------
 ! R1    R(1,2)                  1.4234         calculate D2E/DX2 analytically  !
 ! R2    R(1,6)                  1.3992         calculate D2E/DX2 analytically  !
 ! R3    R(1,7)                  1.0935         calculate D2E/DX2 analytically  !
 ! R4    R(2,3)                  1.328          calculate D2E/DX2 analytically  !
 ! R5    R(3,4)                  1.4009         calculate D2E/DX2 analytically  !
 ! R6    R(3,8)                  1.6318         calculate D2E/DX2 analytically  !
 ! R7    R(4,5)                  1.393          calculate D2E/DX2 analytically  !
 ! R8    R(4,12)                 1.462          calculate D2E/DX2 analytically  !
 ! R9    R(5,6)                  1.4071         calculate D2E/DX2 analytically  !
 ! R10   R(5,11)                 1.0874         calculate D2E/DX2 analytically  !
 ! R11   R(6,10)                 1.0917         calculate D2E/DX2 analytically  !
 ! R12   R(8,9)                  1.1094         calculate D2E/DX2 analytically  !
 ! R13   R(12,13)                1.2358         calculate D2E/DX2 analytically  !
 ! R14   R(12,14)                1.2247         calculate D2E/DX2 analytically  !
 ! A1    A(2,1,6)              121.4866         calculate D2E/DX2 analytically  !
 ! A2    A(2,1,7)              120.068          calculate D2E/DX2 analytically  !
 ! A3    A(6,1,7)              118.4454         calculate D2E/DX2 analytically  !
 ! A4    A(1,2,3)              112.3096         calculate D2E/DX2 analytically  !
 ! A5    A(2,3,4)              131.4121         calculate D2E/DX2 analytically  !
 ! A6    A(2,3,8)              112.9222         calculate D2E/DX2 analytically  !
 ! A7    A(4,3,8)              115.6658         calculate D2E/DX2 analytically  !
 ! A8    A(3,4,5)              114.5755         calculate D2E/DX2 analytically  !
 ! A9    A(3,4,12)             125.2286         calculate D2E/DX2 analytically  !
 ! A10   A(5,4,12)             120.1959         calculate D2E/DX2 analytically  !
 ! A11   A(4,5,6)              119.0182         calculate D2E/DX2 analytically  !
 ! A12   A(4,5,11)             119.0224         calculate D2E/DX2 analytically  !
 ! A13   A(6,5,11)             121.9594         calculate D2E/DX2 analytically  !
 ! A14   A(1,6,5)              121.1982         calculate D2E/DX2 analytically  !
 ! A15   A(1,6,10)             120.1908         calculate D2E/DX2 analytically  !
 ! A16   A(5,6,10)             118.611          calculate D2E/DX2 analytically  !
 ! A17   A(3,8,9)              158.0985         calculate D2E/DX2 analytically  !
 ! A18   A(4,12,13)            117.0395         calculate D2E/DX2 analytically  !
 ! A19   A(4,12,14)            118.5792         calculate D2E/DX2 analytically  !
 ! A20   A(13,12,14)           124.3813         calculate D2E/DX2 analytically  !
 ! D1    D(6,1,2,3)              0.002          calculate D2E/DX2 analytically  !
 ! D2    D(7,1,2,3)           -179.9996         calculate D2E/DX2 analytically  !
 ! D3    D(2,1,6,5)             -0.0021         calculate D2E/DX2 analytically  !
 ! D4    D(2,1,6,10)           179.9989         calculate D2E/DX2 analytically  !
 ! D5    D(7,1,6,5)            179.9994         calculate D2E/DX2 analytically  !
 ! D6    D(7,1,6,10)             0.0005         calculate D2E/DX2 analytically  !
 ! D7    D(1,2,3,4)             -0.0014         calculate D2E/DX2 analytically  !
 ! D8    D(1,2,3,8)            179.9988         calculate D2E/DX2 analytically  !
 ! D9    D(2,3,4,5)              0.0007         calculate D2E/DX2 analytically  !
 ! D10   D(2,3,4,12)           179.9995         calculate D2E/DX2 analytically  !
 ! D11   D(8,3,4,5)           -179.9995         calculate D2E/DX2 analytically  !
 ! D12   D(8,3,4,12)            -0.0006         calculate D2E/DX2 analytically  !
 ! D13   D(2,3,8,9)             -0.0126         calculate D2E/DX2 analytically  !
 ! D14   D(4,3,8,9)            179.9875         calculate D2E/DX2 analytically  !
 ! D15   D(3,4,5,6)             -0.0005         calculate D2E/DX2 analytically  !
 ! D16   D(3,4,5,11)           179.9998         calculate D2E/DX2 analytically  !
 ! D17   D(12,4,5,6)          -179.9994         calculate D2E/DX2 analytically  !
 ! D18   D(12,4,5,11)            0.0009         calculate D2E/DX2 analytically  !
 ! D19   D(3,4,12,13)           -0.0086         calculate D2E/DX2 analytically  !
 ! D20   D(3,4,12,14)         -179.9876         calculate D2E/DX2 analytically  !
 ! D21   D(5,4,12,13)          179.9901         calculate D2E/DX2 analytically  !
 ! D22   D(5,4,12,14)            0.0112         calculate D2E/DX2 analytically  !
 ! D23   D(4,5,6,1)              0.0013         calculate D2E/DX2 analytically  !
 ! D24   D(4,5,6,10)          -179.9997         calculate D2E/DX2 analytically  !
 ! D25   D(11,5,6,1)          -179.999          calculate D2E/DX2 analytically  !
 ! D26   D(11,5,6,10)           -0.0001         calculate D2E/DX2 analytically  !
 --------------------------------------------------------------------------------
 Trust Radius=3.00D-01 FncErr=1.00D-07 GrdErr=1.00D-06
 Number of steps in this run=     70 maximum allowed number of steps=    100.
 Search for a saddle point of order  1.
 GradGradGradGradGradGradGradGradGradGradGradGradGradGradGradGradGradGrad

                          Input orientation:                          
 ---------------------------------------------------------------------
 Center     Atomic      Atomic             Coordinates (Angstroms)
 Number     Number       Type             X           Y           Z
 ---------------------------------------------------------------------
      1          6           0       -1.895770    0.122820   -1.067300
      2          6           0       -0.474320    0.108210   -0.995080
      3          6           0       -0.010470    0.894090   -0.030330
      4          6           0       -0.670350    1.709290    0.898440
      5          6           0       -2.059490    1.696940    0.796140
      6          6           0       -2.664020    0.898610   -0.192300
      7          1           0       -2.412400   -0.480880   -1.818500
      8          7           0        1.618510    0.888550    0.065820
      9          7           0        2.663800    0.618500   -0.189570
     10          1           0       -3.753180    0.893930   -0.266560
     11          1           0       -2.644440    2.304530    1.482510
     12          7           0       -0.015260    2.529430    1.916050
     13          8           0        1.219490    2.496410    1.954900
     14          8           0       -0.713200    3.197970    2.668200
 ---------------------------------------------------------------------
                    Distance matrix (angstroms):
                    1          2          3          4          5
     1  C    0.000000
     2  C    1.423358   0.000000
     3  C    2.285721   1.327971   0.000000
     4  C    2.807610   2.487429   1.400931   0.000000
     5  C    2.444804   2.871462   2.350767   1.392956   0.000000
     6  C    1.399172   2.462514   2.658492   2.412807   1.407054
     7  H    1.093463   2.186596   3.295051   3.900429   3.421080
     8  N    3.771003   2.472727   1.631825   2.570165   3.835954
     9  N    4.669667   3.279793   2.693144   3.672893   4.944100
    10  H    2.164663   3.449496   3.750158   3.394978   2.154702
    11  H    3.438298   3.958749   3.349003   2.143007   1.087399
    12  N    4.269481   3.814147   2.542195   1.461952   2.475099
    13  O    4.946965   4.156305   2.832202   2.303728   3.568415
    14  O    4.980861   4.798260   3.617148   2.313019   2.751399
                    6          7          8          9         10
     6  C    0.000000
     7  H    2.147285   0.000000
     8  N    4.290314   4.655560   0.000000
     9  N    5.335179   5.443331   1.109406   0.000000
    10  H    1.091699   2.469071   5.381966   6.423350   0.000000
    11  H    2.186775   4.325392   4.710069   5.815149   2.505662
    12  N    3.757744   5.362379   2.963957   3.906744   4.627169
    13  O    4.716469   6.024403   2.512579   3.195517   5.677171
    14  O    4.156346   6.045800   4.188398   5.121000   4.812785
                   11         12         13         14
    11  H    0.000000
    12  N    2.674159   0.000000
    13  O    3.897425   1.235802   0.000000
    14  O    2.435936   1.224661   2.176298   0.000000
 Stoichiometry    C6H3N3O2
 Framework group  C1[X(C6H3N3O2)]
 Deg. of freedom    36
 Full point group                 C1      NOp   1
 Largest Abelian subgroup         C1      NOp   1
 Largest concise Abelian subgroup C1      NOp   1
                         Standard orientation:                         
 ---------------------------------------------------------------------
 Center     Atomic      Atomic             Coordinates (Angstroms)
 Number     Number       Type             X           Y           Z
 ---------------------------------------------------------------------
      1          6           0        2.600161    0.576997    0.000056
      2          6           0        1.483882    1.460099    0.000012
      3          6           0        0.326281    0.809354   -0.000033
      4          6           0        0.033348   -0.560608   -0.000070
      5          6           0        1.150985   -1.392002   -0.000042
      6          6           0        2.433007   -0.812155    0.000008
      7          1           0        3.616950    0.979244    0.000104
      8          7           0       -0.964241    1.808055   -0.000052
      9          7           0       -1.525023    2.765294    0.000041
     10          1           0        3.304277   -1.469949    0.000026
     11          1           0        1.006744   -2.469791   -0.000064
     12          7           0       -1.310794   -1.135572   -0.000110
     13          8           0       -2.260221   -0.344499    0.000055
     14          8           0       -1.426474   -2.354758    0.000093
 ---------------------------------------------------------------------
 Rotational constants (GHZ):      1.4739855      1.2487086      0.6760136
 Standard basis: Aug-CC-pVDZ (5D, 7F)
 There are   280 symmetry adapted basis functions of A   symmetry.
 Integral buffers will be    131072 words long.
 Raffenetti 2 integral format.
 Two-electron integral symmetry is turned on.
   280 basis functions,   506 primitive gaussians,   302 cartesian basis functions
    38 alpha electrons       38 beta electrons
       nuclear repulsion energy       545.7325605318 Hartrees.
 NAtoms=   14 NActive=   14 NUniq=   14 SFac= 1.00D+00 NAtFMM=   50 NAOKFM=F Big=F
 One-electron integrals computed using PRISM.
 NBasis=   280 RedAO= T  NBF=   280
 NBsUse=   280 1.00D-06 NBFU=   280
 Harris functional with IExCor=  402 diagonalized for initial guess.
 ExpMin= 2.97D-02 ExpMax= 1.17D+04 ExpMxC= 4.01D+02 IAcc=3 IRadAn=         0 AccDes= 0.00D+00
 HarFok:  IExCor=  402 AccDes= 0.00D+00 IRadAn=         0 IDoV= 1
 ScaDFX=  1.000000  1.000000  1.000000  1.000000
 FoFCou: FMM=F IPFlag=           0 FMFlag=      100000 FMFlg1=           0
         NFxFlg=           0 DoJE=T BraDBF=F KetDBF=T FulRan=T
         Omega=  0.000000  0.000000  1.000000  0.000000  0.000000 ICntrl=     500 IOpCl=  0
         NMat0=    1 NMatS0=    1 NMatT0=    0 NMatD0=    1 NMtDS0=    0 NMtDT0=    0
         I1Cent=           4 NGrid=           0.
 Petite list used in FoFCou.
 Initial guess orbital symmetries:
       Occupied  (A) (A) (A) (A) (A) (A) (A) (A) (A) (A) (A) (A)
                 (A) (A) (A) (A) (A) (A) (A) (A) (A) (A) (A) (A)
                 (A) (A) (A) (A) (A) (A) (A) (A) (A) (A) (A) (A)
                 (A) (A)
       Virtual   (A) (A) (A) (A) (A) (A) (A) (A) (A) (A) (A) (A)
                 (A) (A) (A) (A) (A) (A) (A) (A) (A) (A) (A) (A)
                 (A) (A) (A) (A) (A) (A) (A) (A) (A) (A) (A) (A)
                 (A) (A) (A) (A) (A) (A) (A) (A) (A) (A) (A) (A)
                 (A) (A) (A) (A) (A) (A) (A) (A) (A) (A) (A) (A)
                 (A) (A) (A) (A) (A) (A) (A) (A) (A) (A) (A) (A)
                 (A) (A) (A) (A) (A) (A) (A) (A) (A) (A) (A) (A)
                 (A) (A) (A) (A) (A) (A) (A) (A) (A) (A) (A) (A)
                 (A) (A) (A) (A) (A) (A) (A) (A) (A) (A) (A) (A)
                 (A) (A) (A) (A) (A) (A) (A) (A) (A) (A) (A) (A)
                 (A) (A) (A) (A) (A) (A) (A) (A) (A) (A) (A) (A)
                 (A) (A) (A) (A) (A) (A) (A) (A) (A) (A) (A) (A)
                 (A) (A) (A) (A) (A) (A) (A) (A) (A) (A) (A) (A)
                 (A) (A) (A) (A) (A) (A) (A) (A) (A) (A) (A) (A)
                 (A) (A) (A) (A) (A) (A) (A) (A) (A) (A) (A) (A)
                 (A) (A) (A) (A) (A) (A) (A) (A) (A) (A) (A) (A)
                 (A) (A) (A) (A) (A) (A) (A) (A) (A) (A) (A) (A)
                 (A) (A) (A) (A) (A) (A) (A) (A) (A) (A) (A) (A)
                 (A) (A) (A) (A) (A) (A) (A) (A) (A) (A) (A) (A)
                 (A) (A) (A) (A) (A) (A) (A) (A) (A) (A) (A) (A)
                 (A) (A)
 The electronic state of the initial guess is 1-A.
 Requested convergence on RMS density matrix=1.00D-08 within 128 cycles.
 Requested convergence on MAX density matrix=1.00D-06.
 Requested convergence on             energy=1.00D-06.
 No special actions if energy rises.
 EnCoef did     2 forward-backward iterations
 EnCoef did     2 forward-backward iterations
 DSYEVD returned Info=         561 IAlg= 4 N=   280 NDim=   280 NE2=     1871020 trying DSYEV.
 SCF Done:  E(RB3LYP) =  -544.971425852     A.U. after   19 cycles
             Convg  =    0.3804D-08             -V/T =  2.0061
 Range of M.O.s used for correlation:     1   280
 NBasis=   280 NAE=    38 NBE=    38 NFC=     0 NFV=     0
 NROrb=    280 NOA=    38 NOB=    38 NVA=   242 NVB=   242

 **** Warning!!: The largest alpha MO coefficient is  0.11078476D+03


 **** Warning!!: The smallest alpha delta epsilon is  0.99990296D-01

 Symmetrizing basis deriv contribution to polar:
 IMax=3 JMax=2 DiffMx= 0.00D+00
 G2DrvN: will do    15 centers at a time, making    1 passes doing MaxLOS=2.
 Calling FoFCou, ICntrl=  3107 FMM=F I1Cent=   0 AccDes= 0.00D+00.
 FoFDir/FoFCou used for L=0 through L=2.
 End of G2Drv Frequency-dependent properties file   721 does not exist.
 End of G2Drv Frequency-dependent properties file   722 does not exist.
          IDoAtm=11111111111111
          Differentiating once with respect to nuclear coordinates.
          There are    45 degrees of freedom in the 1st order CPHF.  IDoFFX=5.
     39 vectors produced by pass  0 Test12= 2.04D-10 2.22D-07 XBig12= 7.79D-01 2.47D-01.
 AX will form    39 AO Fock derivatives at one time.
     39 vectors produced by pass  1 Test12= 2.04D-10 2.22D-07 XBig12= 2.92D-01 2.03D-01.
     39 vectors produced by pass  2 Test12= 2.04D-10 2.22D-07 XBig12= 5.73D-03 1.65D-02.
     39 vectors produced by pass  3 Test12= 2.04D-10 2.22D-07 XBig12= 4.05D-05 1.26D-03.
     39 vectors produced by pass  4 Test12= 2.04D-10 2.22D-07 XBig12= 1.66D-07 7.75D-05.
     20 vectors produced by pass  5 Test12= 2.04D-10 2.22D-07 XBig12= 3.79D-10 2.93D-06.
      1 vectors produced by pass  6 Test12= 2.04D-10 2.22D-07 XBig12= 1.70D-12 2.61D-07.
 Inverted reduced A of dimension   216 with in-core refinement.
 End of Minotr Frequency-dependent properties file   721 does not exist.
 End of Minotr Frequency-dependent properties file   722 does not exist.

 **********************************************************************

            Population analysis using the SCF density.

 **********************************************************************

 Orbital symmetries:
       Occupied  (A) (A) (A) (A) (A) (A) (A) (A) (A) (A) (A) (A)
                 (A) (A) (A) (A) (A) (A) (A) (A) (A) (A) (A) (A)
                 (A) (A) (A) (A) (A) (A) (A) (A) (A) (A) (A) (A)
                 (A) (A)
       Virtual   (A) (A) (A) (A) (A) (A) (A) (A) (A) (A) (A) (A)
                 (A) (A) (A) (A) (A) (A) (A) (A) (A) (A) (A) (A)
                 (A) (A) (A) (A) (A) (A) (A) (A) (A) (A) (A) (A)
                 (A) (A) (A) (A) (A) (A) (A) (A) (A) (A) (A) (A)
                 (A) (A) (A) (A) (A) (A) (A) (A) (A) (A) (A) (A)
                 (A) (A) (A) (A) (A) (A) (A) (A) (A) (A) (A) (A)
                 (A) (A) (A) (A) (A) (A) (A) (A) (A) (A) (A) (A)
                 (A) (A) (A) (A) (A) (A) (A) (A) (A) (A) (A) (A)
                 (A) (A) (A) (A) (A) (A) (A) (A) (A) (A) (A) (A)
                 (A) (A) (A) (A) (A) (A) (A) (A) (A) (A) (A) (A)
                 (A) (A) (A) (A) (A) (A) (A) (A) (A) (A) (A) (A)
                 (A) (A) (A) (A) (A) (A) (A) (A) (A) (A) (A) (A)
                 (A) (A) (A) (A) (A) (A) (A) (A) (A) (A) (A) (A)
                 (A) (A) (A) (A) (A) (A) (A) (A) (A) (A) (A) (A)
                 (A) (A) (A) (A) (A) (A) (A) (A) (A) (A) (A) (A)
                 (A) (A) (A) (A) (A) (A) (A) (A) (A) (A) (A) (A)
                 (A) (A) (A) (A) (A) (A) (A) (A) (A) (A) (A) (A)
                 (A) (A) (A) (A) (A) (A) (A) (A) (A) (A) (A) (A)
                 (A) (A) (A) (A) (A) (A) (A) (A) (A) (A) (A) (A)
                 (A) (A) (A) (A) (A) (A) (A) (A) (A) (A) (A) (A)
                 (A) (A)
 The electronic state is 1-A.
 Alpha  occ. eigenvalues --  -19.21065 -19.21016 -14.59931 -14.52632 -14.50010
 Alpha  occ. eigenvalues --  -10.29107 -10.28610 -10.23892 -10.22991 -10.22847
 Alpha  occ. eigenvalues --  -10.18495  -1.26012  -1.18972  -1.08705  -0.92012
 Alpha  occ. eigenvalues --   -0.82661  -0.81227  -0.73201  -0.69102  -0.62958
 Alpha  occ. eigenvalues --   -0.60796  -0.57161  -0.56536  -0.54285  -0.53437
 Alpha  occ. eigenvalues --   -0.53204  -0.52017  -0.49032  -0.47702  -0.42582
 Alpha  occ. eigenvalues --   -0.41101  -0.39906  -0.34577  -0.34518  -0.32655
 Alpha  occ. eigenvalues --   -0.30359  -0.29015  -0.23129
 Alpha virt. eigenvalues --   -0.13130  -0.10541  -0.09349  -0.02461  -0.02182
 Alpha virt. eigenvalues --   -0.01651   0.00353   0.00863   0.01324   0.03265
 Alpha virt. eigenvalues --    0.04067   0.04553   0.05547   0.06357   0.07164
 Alpha virt. eigenvalues --    0.07709   0.07940   0.08511   0.08847   0.09330
 Alpha virt. eigenvalues --    0.10343   0.10947   0.11037   0.11779   0.12034
 Alpha virt. eigenvalues --    0.12298   0.12341   0.13659   0.13839   0.14784
 Alpha virt. eigenvalues --    0.15209   0.16569   0.17155   0.18093   0.18163
 Alpha virt. eigenvalues --    0.18405   0.18907   0.19911   0.20150   0.21250
 Alpha virt. eigenvalues --    0.21721   0.21792   0.22523   0.23202   0.23732
 Alpha virt. eigenvalues --    0.24952   0.25427   0.26058   0.26600   0.26864
 Alpha virt. eigenvalues --    0.27171   0.28346   0.28565   0.29002   0.29188
 Alpha virt. eigenvalues --    0.29682   0.30457   0.30912   0.32158   0.33035
 Alpha virt. eigenvalues --    0.33721   0.35022   0.35165   0.36760   0.37859
 Alpha virt. eigenvalues --    0.38545   0.39121   0.41263   0.41629   0.42198
 Alpha virt. eigenvalues --    0.43758   0.43920   0.45786   0.47288   0.48948
 Alpha virt. eigenvalues --    0.49161   0.50496   0.50774   0.51075   0.51717
 Alpha virt. eigenvalues --    0.52934   0.53081   0.54550   0.55928   0.56473
 Alpha virt. eigenvalues --    0.56890   0.58366   0.58745   0.59045   0.59886
 Alpha virt. eigenvalues --    0.61435   0.61675   0.63423   0.64217   0.64950
 Alpha virt. eigenvalues --    0.66472   0.68152   0.68889   0.69981   0.70123
 Alpha virt. eigenvalues --    0.70660   0.70863   0.71889   0.73017   0.73129
 Alpha virt. eigenvalues --    0.74716   0.74911   0.75579   0.76596   0.77198
 Alpha virt. eigenvalues --    0.77287   0.77749   0.79067   0.81980   0.83804
 Alpha virt. eigenvalues --    0.84079   0.84543   0.87110   0.87710   0.88712
 Alpha virt. eigenvalues --    0.89736   0.91145   0.96066   0.97206   0.97613
 Alpha virt. eigenvalues --    1.00102   1.00795   1.01930   1.03563   1.03699
 Alpha virt. eigenvalues --    1.06322   1.07337   1.09164   1.09823   1.14182
 Alpha virt. eigenvalues --    1.15661   1.16556   1.18024   1.20228   1.20790
 Alpha virt. eigenvalues --    1.21142   1.22925   1.24296   1.25302   1.25660
 Alpha virt. eigenvalues --    1.28677   1.29055   1.29874   1.32537   1.33036
 Alpha virt. eigenvalues --    1.34580   1.35155   1.37502   1.38682   1.39421
 Alpha virt. eigenvalues --    1.40303   1.40780   1.42144   1.42952   1.43504
 Alpha virt. eigenvalues --    1.48107   1.49400   1.52926   1.53404   1.55775
 Alpha virt. eigenvalues --    1.57051   1.59118   1.60036   1.61286   1.61965
 Alpha virt. eigenvalues --    1.63220   1.64764   1.66553   1.70223   1.71468
 Alpha virt. eigenvalues --    1.73131   1.73786   1.77117   1.79679   1.80033
 Alpha virt. eigenvalues --    1.85863   1.87362   1.87836   1.90084   1.91860
 Alpha virt. eigenvalues --    1.92379   1.92845   1.96025   1.98852   2.00695
 Alpha virt. eigenvalues --    2.03076   2.03665   2.05245   2.05879   2.07686
 Alpha virt. eigenvalues --    2.08331   2.10186   2.14470   2.18982   2.19075
 Alpha virt. eigenvalues --    2.21086   2.26925   2.29505   2.30075   2.30970
 Alpha virt. eigenvalues --    2.32603   2.34968   2.37406   2.38697   2.42642
 Alpha virt. eigenvalues --    2.46299   2.48090   2.54922   2.56234   2.62045
 Alpha virt. eigenvalues --    2.66563   2.73767   2.74814   2.79806   2.82820
 Alpha virt. eigenvalues --    2.85525   2.87851   2.88382   3.05100   3.08063
 Alpha virt. eigenvalues --    3.11503   3.17551   3.25267   3.26744   3.29157
 Alpha virt. eigenvalues --    3.29435   3.35188   3.37488   3.43944   3.45052
 Alpha virt. eigenvalues --    3.56174   3.58228   3.58486   3.77798   3.79653
 Alpha virt. eigenvalues --    3.81939   4.16338
          Condensed to atoms (all electrons):
              1          2          3          4          5          6
     1  C    8.292959   0.160744  -0.438825  -1.088044   0.634256  -1.951524
     2  C    0.160744  10.631929  -0.497054  -1.086581  -1.858571   0.496021
     3  C   -0.438825  -0.497054  11.653893  -3.037978  -1.526121  -1.216011
     4  C   -1.088044  -1.086581  -3.037978  12.759386  -2.449230   0.147130
     5  C    0.634256  -1.858571  -1.526121  -2.449230  13.213087  -2.358597
     6  C   -1.951524   0.496021  -1.216011   0.147130  -2.358597  11.120296
     7  H   -0.933463  -0.220892   0.136468  -0.031455  -0.064649   0.503103
     8  N    0.103180  -0.321176   0.250965  -0.029902   0.011366  -0.076528
     9  N    0.070354   0.389123  -0.451198  -0.315129  -0.058613  -0.012788
    10  H    0.567682  -0.177880   0.029068  -0.154159   0.778149  -1.654698
    11  H   -0.104586   0.118404  -0.278018   0.847564  -1.815213   0.721816
    12  N    0.120776  -0.183584   0.029301  -0.597542   0.318915  -0.219224
    13  O   -0.011681   0.003551  -0.028287   0.164897  -0.025473  -0.014182
    14  O   -0.019368  -0.003149  -0.039891   0.122954   0.041058  -0.036842
              7          8          9         10         11         12
     1  C   -0.933463   0.103180   0.070354   0.567682  -0.104586   0.120776
     2  C   -0.220892  -0.321176   0.389123  -0.177880   0.118404  -0.183584
     3  C    0.136468   0.250965  -0.451198   0.029068  -0.278018   0.029301
     4  C   -0.031455  -0.029902  -0.315129  -0.154159   0.847564  -0.597542
     5  C   -0.064649   0.011366  -0.058613   0.778149  -1.815213   0.318915
     6  C    0.503103  -0.076528  -0.012788  -1.654698   0.721816  -0.219224
     7  H    2.479678  -0.013981   0.004142  -0.197132  -0.005994  -0.000564
     8  N   -0.013981   8.133663  -1.519935   0.006170  -0.009367  -0.002498
     9  N    0.004142  -1.519935   9.653405   0.000115  -0.000932  -0.010035
    10  H   -0.197132   0.006170   0.000115   2.717882  -0.193275   0.002704
    11  H   -0.005994  -0.009367  -0.000932  -0.193275   2.676077  -0.149523
    12  N   -0.000564  -0.002498  -0.010035   0.002704  -0.149523   7.884723
    13  O   -0.000413  -0.022342  -0.017723  -0.000075  -0.011138  -0.499990
    14  O   -0.000280  -0.007002  -0.004542   0.000509  -0.014173  -0.441047
             13         14
     1  C   -0.011681  -0.019368
     2  C    0.003551  -0.003149
     3  C   -0.028287  -0.039891
     4  C    0.164897   0.122954
     5  C   -0.025473   0.041058
     6  C   -0.014182  -0.036842
     7  H   -0.000413  -0.000280
     8  N   -0.022342  -0.007002
     9  N   -0.017723  -0.004542
    10  H   -0.000075   0.000509
    11  H   -0.011138  -0.014173
    12  N   -0.499990  -0.441047
    13  O    9.201300  -0.042306
    14  O   -0.042306   9.125499
 Mulliken atomic charges:
              1
     1  C    0.597540
     2  C   -1.450885
     3  C    1.413689
     4  C    0.748090
     5  C    1.159637
     6  C    0.552029
     7  H   -0.654567
     8  N    0.497387
     9  N   -0.726246
    10  H   -0.725060
    11  H   -0.781644
    12  N    0.747589
    13  O   -0.696137
    14  O   -0.681420
 Sum of Mulliken atomic charges =   0.00000
 Mulliken charges with hydrogens summed into heavy atoms:
              1
     1  C   -0.057027
     2  C   -1.450885
     3  C    1.413689
     4  C    0.748090
     5  C    0.377992
     6  C   -0.173031
     8  N    0.497387
     9  N   -0.726246
    12  N    0.747589
    13  O   -0.696137
    14  O   -0.681420
 Sum of Mulliken charges with hydrogens summed into heavy atoms =   0.00000
 APT atomic charges:
              1
     1  C    0.827933
     2  C    0.259847
     3  C   -0.567387
     4  C    0.137988
     5  C    0.191971
     6  C    0.345994
     7  H   -0.105988
     8  N   -1.185772
     9  N    0.802867
    10  H   -0.158114
    11  H   -0.150145
    12  N    0.686342
    13  O   -0.608542
    14  O   -0.476992
 Sum of APT charges=   0.00000
 APT Atomic charges with hydrogens summed into heavy atoms:
              1
     1  C    0.721945
     2  C    0.259847
     3  C   -0.567387
     4  C    0.137988
     5  C    0.041827
     6  C    0.187879
     7  H    0.000000
     8  N   -1.185772
     9  N    0.802867
    10  H    0.000000
    11  H    0.000000
    12  N    0.686342
    13  O   -0.608542
    14  O   -0.476992
 Sum of APT charges=   0.00000
 Electronic spatial extent (au):  <R**2>=           1538.2049
 Charge=              0.0000 electrons
 Dipole moment (field-independent basis, Debye):
    X=              1.6944    Y=             -0.1467    Z=             -0.0004  Tot=              1.7008
 Quadrupole moment (field-independent basis, Debye-Ang):
   XX=            -63.2048   YY=            -65.8975   ZZ=            -61.6907
   XY=            -10.4959   XZ=              0.0009   YZ=              0.0004
 Traceless Quadrupole moment (field-independent basis, Debye-Ang):
   XX=              0.3929   YY=             -2.2999   ZZ=              1.9069
   XY=            -10.4959   XZ=              0.0009   YZ=              0.0004
 Octapole moment (field-independent basis, Debye-Ang**2):
  XXX=             12.1426  YYY=            -12.8519  ZZZ=              0.0004  XYY=             -6.6823
  XXY=             -3.5397  XXZ=             -0.0003  XZZ=            -14.6915  YZZ=             -2.4414
  YYZ=             -0.0012  XYZ=             -0.0007
 Hexadecapole moment (field-independent basis, Debye-Ang**3):
 XXXX=          -1039.9853 YYYY=           -928.1117 ZZZZ=            -64.4426 XXXY=            -30.2758
 XXXZ=              0.0048 YYYX=            -60.4803 YYYZ=             -0.0011 ZZZX=             -0.0007
 ZZZY=             -0.0009 XXYY=           -344.2002 XXZZ=           -198.4371 YYZZ=           -156.6671
 XXYZ=              0.0020 YYXZ=              0.0018 ZZXY=             -0.6101
 N-N= 5.457325605318D+02 E-N=-2.362497279663D+03  KE= 5.416922385336D+02
  Exact polarizability:   0.000   0.000   0.000   0.000   0.000   0.000
 Approx polarizability: 279.737 -14.729 239.374   0.001   0.001  88.431
 Calling FoFJK, ICntrl=    100147 FMM=F ISym2X=0 I1Cent= 0 IOpClX= 0 NMat=1 NMatS=1 NMatT=0.
 ***** Axes restored to original set *****
 -------------------------------------------------------------------
 Center     Atomic                   Forces (Hartrees/Bohr)
 Number     Number              X              Y              Z
 -------------------------------------------------------------------
      1        6           0.000063636   -0.000104924   -0.000124877
      2        6          -0.000363849   -0.000043592   -0.000071133
      3        6           0.000845876   -0.000079752   -0.000046088
      4        6          -0.000335175    0.000016657   -0.000022959
      5        6           0.000071155    0.000050450    0.000059766
      6        6           0.000091889    0.000008086    0.000021300
      7        1          -0.000024139    0.000017233    0.000018454
      8        7          -0.000288661    0.000359810    0.000412997
      9        7          -0.000000657   -0.000199358   -0.000238954
     10        1          -0.000022854    0.000011417    0.000012134
     11        1          -0.000010892   -0.000006543   -0.000008693
     12        7          -0.000097468   -0.000048426    0.000023886
     13        8           0.000055843   -0.000020156   -0.000051667
     14        8           0.000015297    0.000039099    0.000015835
 -------------------------------------------------------------------
 Cartesian Forces:  Max     0.000845876 RMS     0.000190885

 GradGradGradGradGradGradGradGradGradGradGradGradGradGradGradGradGradGrad
 Berny optimization.
 Internal  Forces:  Max     0.000617174 RMS     0.000113407
 Search for a saddle point.
 Step number   1 out of a maximum of   70
 All quantities printed in internal units (Hartrees-Bohrs-Radians)
 Swaping is turned off.
 Second derivative matrix not updated -- analytic derivatives used.
 ITU=  0
     Eigenvalues ---   -0.06255   0.00088   0.00243   0.00659   0.01687
     Eigenvalues ---    0.01904   0.01975   0.02377   0.02744   0.02997
     Eigenvalues ---    0.03846   0.08114   0.10643   0.11268   0.11706
     Eigenvalues ---    0.12137   0.14107   0.17655   0.19292   0.19733
     Eigenvalues ---    0.22743   0.23775   0.28546   0.34604   0.35524
     Eigenvalues ---    0.36068   0.37144   0.38116   0.40601   0.44743
     Eigenvalues ---    0.47925   0.51793   0.56617   0.58426   0.76287
     Eigenvalues ---    1.45713
 Eigenvectors required to have negative eigenvalues:
                          R6        A17       R4        A4        A1
   1                   -0.91333   0.25622   0.20177  -0.09679   0.09560
                          A7        A9        A8        R5        A2
   1                    0.09156  -0.08042   0.07176   0.07123  -0.05836
 RFO step:  Lambda0=5.103278805D-07 Lambda=-7.50661784D-06.
 Linear search not attempted -- option 19 set.
 Iteration  1 RMS(Cart)=  0.00178451 RMS(Int)=  0.00000864
 Iteration  2 RMS(Cart)=  0.00000865 RMS(Int)=  0.00000011
 Iteration  3 RMS(Cart)=  0.00000000 RMS(Int)=  0.00000011
 Variable       Old X    -DE/DX   Delta X   Delta X   Delta X     New X
                                 (Linear)    (Quad)   (Total)
    R1        2.68976  -0.00006   0.00000  -0.00072  -0.00071   2.68904
    R2        2.64405   0.00003   0.00000   0.00014   0.00014   2.64419
    R3        2.06635  -0.00001   0.00000  -0.00007  -0.00007   2.06627
    R4        2.50950   0.00026   0.00000  -0.00051  -0.00051   2.50899
    R5        2.64738   0.00014   0.00000   0.00021   0.00021   2.64758
    R6        3.08370  -0.00028   0.00000   0.00027   0.00027   3.08397
    R7        2.63231  -0.00011   0.00000  -0.00024  -0.00024   2.63207
    R8        2.76269  -0.00004   0.00000   0.00013   0.00013   2.76282
    R9        2.65895  -0.00001   0.00000  -0.00006  -0.00006   2.65888
   R10        2.05489   0.00000   0.00000  -0.00002  -0.00002   2.05486
   R11        2.06301   0.00002   0.00000   0.00008   0.00008   2.06309
   R12        2.09647   0.00010   0.00000   0.00032   0.00032   2.09679
   R13        2.33533   0.00006   0.00000   0.00018   0.00018   2.33551
   R14        2.31427   0.00002   0.00000  -0.00001  -0.00001   2.31426
    A1        2.12034  -0.00005   0.00000  -0.00109  -0.00109   2.11925
    A2        2.09558   0.00006   0.00000   0.00094   0.00094   2.09652
    A3        2.06726  -0.00001   0.00000   0.00015   0.00015   2.06741
    A4        1.96017   0.00012   0.00000   0.00212   0.00212   1.96230
    A5        2.29357  -0.00025   0.00000  -0.00197  -0.00197   2.29161
    A6        1.97086   0.00020   0.00000   0.00188   0.00188   1.97274
    A7        2.01875   0.00005   0.00000   0.00009   0.00009   2.01884
    A8        1.99972   0.00012   0.00000   0.00083   0.00083   2.00055
    A9        2.18565  -0.00015   0.00000  -0.00075  -0.00075   2.18490
   A10        2.09781   0.00003   0.00000  -0.00008  -0.00008   2.09773
   A11        2.07726  -0.00001   0.00000  -0.00010  -0.00010   2.07716
   A12        2.07733   0.00002   0.00000   0.00026   0.00026   2.07759
   A13        2.12859  -0.00001   0.00000  -0.00016  -0.00016   2.12843
   A14        2.11531   0.00007   0.00000   0.00020   0.00020   2.11551
   A15        2.09773  -0.00001   0.00000   0.00002   0.00002   2.09774
   A16        2.07015  -0.00005   0.00000  -0.00022  -0.00022   2.06993
   A17        2.75934  -0.00062   0.00000  -0.00894  -0.00894   2.75040
   A18        2.04272  -0.00011   0.00000  -0.00024  -0.00024   2.04248
   A19        2.06960   0.00009   0.00000   0.00037   0.00037   2.06997
   A20        2.17086   0.00002   0.00000  -0.00013  -0.00013   2.17074
    D1        0.00003   0.00000   0.00000  -0.00003  -0.00003   0.00000
    D2       -3.14159   0.00000   0.00000  -0.00001  -0.00001  -3.14159
    D3       -0.00004   0.00000   0.00000   0.00003   0.00003   0.00000
    D4        3.14157   0.00000   0.00000   0.00002   0.00002   3.14159
    D5        3.14158   0.00000   0.00000   0.00001   0.00001   3.14159
    D6        0.00001   0.00000   0.00000  -0.00001  -0.00001   0.00000
    D7       -0.00002   0.00000   0.00000   0.00002   0.00002   0.00000
    D8        3.14157   0.00000   0.00000   0.00002   0.00002  -3.14159
    D9        0.00001   0.00000   0.00000  -0.00001  -0.00001   0.00000
   D10        3.14158   0.00000   0.00000   0.00001   0.00001   3.14159
   D11       -3.14158   0.00000   0.00000  -0.00001  -0.00001   3.14159
   D12       -0.00001   0.00000   0.00000   0.00001   0.00001   0.00000
   D13       -0.00022   0.00000   0.00000   0.00021   0.00021  -0.00001
   D14        3.14137   0.00000   0.00000   0.00021   0.00021   3.14158
   D15       -0.00001   0.00000   0.00000   0.00001   0.00001   0.00000
   D16        3.14159   0.00000   0.00000   0.00000   0.00000   3.14159
   D17       -3.14158   0.00000   0.00000  -0.00001  -0.00001  -3.14159
   D18        0.00002   0.00000   0.00000  -0.00001  -0.00001   0.00000
   D19       -0.00015   0.00002   0.00000   0.00015   0.00015   0.00000
   D20       -3.14138  -0.00002   0.00000  -0.00022  -0.00022   3.14159
   D21        3.14142   0.00002   0.00000   0.00017   0.00017   3.14159
   D22        0.00020  -0.00002   0.00000  -0.00020  -0.00020   0.00000
   D23        0.00002   0.00000   0.00000  -0.00002  -0.00002   0.00000
   D24       -3.14159   0.00000   0.00000   0.00000   0.00000  -3.14159
   D25       -3.14158   0.00000   0.00000  -0.00002  -0.00002  -3.14159
   D26        0.00000   0.00000   0.00000   0.00000   0.00000   0.00000
         Item               Value     Threshold  Converged?
 Maximum Force            0.000617     0.000450     NO 
 RMS     Force            0.000113     0.000300     YES
 Maximum Displacement     0.008623     0.001800     NO 
 RMS     Displacement     0.001785     0.001200     NO 
 Predicted change in Energy=-3.498143D-06
 GradGradGradGradGradGradGradGradGradGradGradGradGradGradGradGradGradGrad

                          Input orientation:                          
 ---------------------------------------------------------------------
 Center     Atomic      Atomic             Coordinates (Angstroms)
 Number     Number       Type             X           Y           Z
 ---------------------------------------------------------------------
      1          6           0       -1.895251    0.122733   -1.067419
      2          6           0       -0.474238    0.109217   -0.993862
      3          6           0       -0.009363    0.894607   -0.029582
      4          6           0       -0.670609    1.709442    0.898703
      5          6           0       -2.059603    1.696905    0.796149
      6          6           0       -2.663697    0.898477   -0.192433
      7          1           0       -2.411591   -0.481022   -1.818720
      8          7           0        1.619691    0.890082    0.067801
      9          7           0        2.662172    0.614797   -0.194133
     10          1           0       -3.752893    0.893731   -0.266800
     11          1           0       -2.644999    2.304306    1.482285
     12          7           0       -0.015899    2.529747    1.916525
     13          8           0        1.218953    2.496907    1.955344
     14          8           0       -0.713773    3.198472    2.668561
 ---------------------------------------------------------------------
                    Distance matrix (angstroms):
                    1          2          3          4          5
     1  C    0.000000
     2  C    1.422980   0.000000
     3  C    2.286803   1.327699   0.000000
     4  C    2.807674   2.486179   1.401040   0.000000
     5  C    2.444977   2.870240   2.351382   1.392832   0.000000
     6  C    1.399246   2.461494   2.659327   2.412601   1.407021
     7  H    1.093425   2.186803   3.296069   3.900454   3.421227
     8  N    3.772581   2.474150   1.631968   2.570451   3.836490
     9  N    4.666354   3.276010   2.691184   3.674229   4.944368
    10  H    2.164778   3.448719   3.751039   3.394740   2.154572
    11  H    3.438368   3.957515   3.349562   2.143046   1.087385
    12  N    4.269613   3.813056   2.541860   1.462021   2.474993
    13  O    4.946925   4.155211   2.831264   2.303700   3.568286
    14  O    4.981326   4.797314   3.617176   2.313325   2.751707
                    6          7          8          9         10
     6  C    0.000000
     7  H    2.147414   0.000000
     8  N    4.291293   4.657265   0.000000
     9  N    5.333418   5.439041   1.109575   0.000000
    10  H    1.091743   2.469310   5.382994   6.421537   0.000000
    11  H    2.186637   4.325409   4.710453   5.816432   2.505284
    12  N    3.757602   5.362473   2.963348   3.910751   4.626941
    13  O    4.716237   6.024323   2.511035   3.200854   5.676914
    14  O    4.156617   6.046235   4.187800   5.125173   4.812944
                   11         12         13         14
    11  H    0.000000
    12  N    2.674239   0.000000
    13  O    3.897564   1.235899   0.000000
    14  O    2.436477   1.224655   2.176305   0.000000
 Stoichiometry    C6H3N3O2
 Framework group  C1[X(C6H3N3O2)]
 Deg. of freedom    36
 Full point group                 C1      NOp   1
 Largest Abelian subgroup         C1      NOp   1
 Largest concise Abelian subgroup C1      NOp   1
                         Standard orientation:                         
 ---------------------------------------------------------------------
 Center     Atomic      Atomic             Coordinates (Angstroms)
 Number     Number       Type             X           Y           Z
 ---------------------------------------------------------------------
      1          6           0        2.600632    0.573940    0.000002
      2          6           0        1.484790    1.456986    0.000000
      3          6           0        0.325944    0.809021    0.000000
      4          6           0        0.032550   -0.560955    0.000000
      5          6           0        1.149130   -1.393559    0.000000
      6          6           0        2.431730   -0.815074    0.000000
      7          1           0        3.617828    0.975054    0.000003
      8          7           0       -0.964285    1.808336   -0.000003
      9          7           0       -1.516179    2.770922   -0.000001
     10          1           0        3.302199   -1.474001    0.000000
     11          1           0        1.003933   -2.471207    0.000000
     12          7           0       -1.312270   -1.134510    0.000001
     13          8           0       -2.260734   -0.342133    0.000005
     14          8           0       -1.429700   -2.353522   -0.000003
 ---------------------------------------------------------------------
 Rotational constants (GHZ):      1.4728696      1.2493640      0.6759707
 Standard basis: Aug-CC-pVDZ (5D, 7F)
 There are   280 symmetry adapted basis functions of A   symmetry.
 Integral buffers will be    131072 words long.
 Raffenetti 2 integral format.
 Two-electron integral symmetry is turned on.
   280 basis functions,   506 primitive gaussians,   302 cartesian basis functions
    38 alpha electrons       38 beta electrons
       nuclear repulsion energy       545.7271724305 Hartrees.
 NAtoms=   14 NActive=   14 NUniq=   14 SFac= 1.00D+00 NAtFMM=   50 NAOKFM=F Big=F
 One-electron integrals computed using PRISM.
 NBasis=   280 RedAO= T  NBF=   280
 NBsUse=   280 1.00D-06 NBFU=   280
 Initial guess read from the read-write file.
 B after Tr=     0.000000    0.000000    0.000000
         Rot=    1.000000    0.000000    0.000000    0.000000 Ang=   0.00 deg.
 Initial guess orbital symmetries:
       Occupied  (A) (A) (A) (A) (A) (A) (A) (A) (A) (A) (A) (A)
                 (A) (A) (A) (A) (A) (A) (A) (A) (A) (A) (A) (A)
                 (A) (A) (A) (A) (A) (A) (A) (A) (A) (A) (A) (A)
                 (A) (A)
       Virtual   (A) (A) (A) (A) (A) (A) (A) (A) (A) (A) (A) (A)
                 (A) (A) (A) (A) (A) (A) (A) (A) (A) (A) (A) (A)
                 (A) (A) (A) (A) (A) (A) (A) (A) (A) (A) (A) (A)
                 (A) (A) (A) (A) (A) (A) (A) (A) (A) (A) (A) (A)
                 (A) (A) (A) (A) (A) (A) (A) (A) (A) (A) (A) (A)
                 (A) (A) (A) (A) (A) (A) (A) (A) (A) (A) (A) (A)
                 (A) (A) (A) (A) (A) (A) (A) (A) (A) (A) (A) (A)
                 (A) (A) (A) (A) (A) (A) (A) (A) (A) (A) (A) (A)
                 (A) (A) (A) (A) (A) (A) (A) (A) (A) (A) (A) (A)
                 (A) (A) (A) (A) (A) (A) (A) (A) (A) (A) (A) (A)
                 (A) (A) (A) (A) (A) (A) (A) (A) (A) (A) (A) (A)
                 (A) (A) (A) (A) (A) (A) (A) (A) (A) (A) (A) (A)
                 (A) (A) (A) (A) (A) (A) (A) (A) (A) (A) (A) (A)
                 (A) (A) (A) (A) (A) (A) (A) (A) (A) (A) (A) (A)
                 (A) (A) (A) (A) (A) (A) (A) (A) (A) (A) (A) (A)
                 (A) (A) (A) (A) (A) (A) (A) (A) (A) (A) (A) (A)
                 (A) (A) (A) (A) (A) (A) (A) (A) (A) (A) (A) (A)
                 (A) (A) (A) (A) (A) (A) (A) (A) (A) (A) (A) (A)
                 (A) (A) (A) (A) (A) (A) (A) (A) (A) (A) (A) (A)
                 (A) (A) (A) (A) (A) (A) (A) (A) (A) (A) (A) (A)
                 (A) (A)
 Requested convergence on RMS density matrix=1.00D-08 within 128 cycles.
 Requested convergence on MAX density matrix=1.00D-06.
 Requested convergence on             energy=1.00D-06.
 No special actions if energy rises.
 SCF Done:  E(RB3LYP) =  -544.971429312     A.U. after   12 cycles
             Convg  =    0.6922D-08             -V/T =  2.0061
 Calling FoFJK, ICntrl=      2127 FMM=F ISym2X=0 I1Cent= 0 IOpClX= 0 NMat=1 NMatS=1 NMatT=0.
 ***** Axes restored to original set *****
 -------------------------------------------------------------------
 Center     Atomic                   Forces (Hartrees/Bohr)
 Number     Number              X              Y              Z
 -------------------------------------------------------------------
      1        6          -0.000000333   -0.000001341   -0.000001652
      2        6          -0.000003532    0.000001487    0.000001592
      3        6           0.000000132   -0.000001334   -0.000001639
      4        6          -0.000000361    0.000000004    0.000000013
      5        6          -0.000000588   -0.000000184   -0.000000257
      6        6           0.000000855    0.000000493    0.000000644
      7        1           0.000000242   -0.000000257   -0.000000291
      8        7           0.000001667   -0.000000004    0.000000147
      9        7           0.000003638    0.000000244    0.000000493
     10        1           0.000000240   -0.000000354   -0.000000396
     11        1           0.000000016   -0.000000089   -0.000000114
     12        7           0.000000668    0.000000289    0.000000407
     13        8          -0.000002311    0.000001285    0.000001370
     14        8          -0.000000334   -0.000000239   -0.000000315
 -------------------------------------------------------------------
 Cartesian Forces:  Max     0.000003638 RMS     0.000001145

 GradGradGradGradGradGradGradGradGradGradGradGradGradGradGradGradGradGrad
 Berny optimization.
 Internal  Forces:  Max     0.000005089 RMS     0.000001490
 Search for a saddle point.
 Step number   2 out of a maximum of   70
 All quantities printed in internal units (Hartrees-Bohrs-Radians)
 Swaping is turned off.
 Update second derivatives using D2CorX and points    1    2
 ITU=  0  0
     Eigenvalues ---   -0.06282   0.00088   0.00243   0.00659   0.01687
     Eigenvalues ---    0.01904   0.01975   0.02377   0.02744   0.02997
     Eigenvalues ---    0.03846   0.08151   0.10642   0.11268   0.11705
     Eigenvalues ---    0.12136   0.14104   0.17655   0.19292   0.19733
     Eigenvalues ---    0.22742   0.23775   0.28546   0.34604   0.35525
     Eigenvalues ---    0.36068   0.37146   0.38116   0.40600   0.44744
     Eigenvalues ---    0.47924   0.51794   0.56614   0.58426   0.76287
     Eigenvalues ---    1.45713
 Eigenvectors required to have negative eigenvalues:
                          R6        A17       R4        A4        A1
   1                   -0.91264   0.25825   0.20184  -0.09780   0.09598
                          A7        A9        A8        R5        A2
   1                    0.09135  -0.08041   0.07143   0.07104  -0.05866
 RFO step:  Lambda0=3.145776487D-10 Lambda= 0.00000000D+00.
 Linear search not attempted -- option 19 set.
 Iteration  1 RMS(Cart)=  0.00001365 RMS(Int)=  0.00000000
 Iteration  2 RMS(Cart)=  0.00000000 RMS(Int)=  0.00000000
 Variable       Old X    -DE/DX   Delta X   Delta X   Delta X     New X
                                 (Linear)    (Quad)   (Total)
    R1        2.68904   0.00000   0.00000   0.00000   0.00000   2.68904
    R2        2.64419   0.00000   0.00000   0.00000   0.00000   2.64419
    R3        2.06627   0.00000   0.00000   0.00000   0.00000   2.06628
    R4        2.50899   0.00000   0.00000   0.00001   0.00001   2.50900
    R5        2.64758   0.00000   0.00000   0.00001   0.00001   2.64759
    R6        3.08397   0.00001   0.00000  -0.00006  -0.00006   3.08392
    R7        2.63207   0.00000   0.00000   0.00000   0.00000   2.63207
    R8        2.76282   0.00000   0.00000   0.00000   0.00000   2.76282
    R9        2.65888   0.00000   0.00000   0.00000   0.00000   2.65888
   R10        2.05486   0.00000   0.00000   0.00000   0.00000   2.05486
   R11        2.06309   0.00000   0.00000   0.00000   0.00000   2.06309
   R12        2.09679   0.00000   0.00000   0.00000   0.00000   2.09680
   R13        2.33551   0.00000   0.00000   0.00000   0.00000   2.33551
   R14        2.31426   0.00000   0.00000   0.00000   0.00000   2.31426
    A1        2.11925   0.00000   0.00000   0.00000   0.00000   2.11925
    A2        2.09652   0.00000   0.00000   0.00000   0.00000   2.09652
    A3        2.06741   0.00000   0.00000   0.00000   0.00000   2.06741
    A4        1.96230   0.00000   0.00000   0.00001   0.00001   1.96231
    A5        2.29161   0.00000   0.00000  -0.00002  -0.00002   2.29159
    A6        1.97274   0.00000   0.00000   0.00001   0.00001   1.97275
    A7        2.01884   0.00000   0.00000   0.00001   0.00001   2.01885
    A8        2.00055   0.00000   0.00000   0.00001   0.00001   2.00056
    A9        2.18490   0.00000   0.00000   0.00000   0.00000   2.18491
   A10        2.09773   0.00000   0.00000  -0.00001  -0.00001   2.09772
   A11        2.07716   0.00000   0.00000   0.00000   0.00000   2.07716
   A12        2.07759   0.00000   0.00000   0.00000   0.00000   2.07759
   A13        2.12843   0.00000   0.00000   0.00000   0.00000   2.12843
   A14        2.11551   0.00000   0.00000   0.00000   0.00000   2.11551
   A15        2.09774   0.00000   0.00000   0.00000   0.00000   2.09775
   A16        2.06993   0.00000   0.00000   0.00000   0.00000   2.06993
   A17        2.75040   0.00000   0.00000   0.00005   0.00005   2.75045
   A18        2.04248   0.00000   0.00000   0.00000   0.00000   2.04249
   A19        2.06997   0.00000   0.00000   0.00000   0.00000   2.06997
   A20        2.17074   0.00000   0.00000   0.00000   0.00000   2.17073
    D1        0.00000   0.00000   0.00000   0.00000   0.00000   0.00000
    D2       -3.14159   0.00000   0.00000   0.00000   0.00000  -3.14159
    D3        0.00000   0.00000   0.00000   0.00000   0.00000   0.00000
    D4        3.14159   0.00000   0.00000   0.00000   0.00000   3.14159
    D5        3.14159   0.00000   0.00000   0.00000   0.00000   3.14159
    D6        0.00000   0.00000   0.00000   0.00000   0.00000   0.00000
    D7        0.00000   0.00000   0.00000   0.00000   0.00000   0.00000
    D8       -3.14159   0.00000   0.00000   0.00000   0.00000  -3.14159
    D9        0.00000   0.00000   0.00000   0.00000   0.00000   0.00000
   D10        3.14159   0.00000   0.00000   0.00000   0.00000   3.14159
   D11        3.14159   0.00000   0.00000   0.00000   0.00000   3.14159
   D12        0.00000   0.00000   0.00000   0.00000   0.00000   0.00000
   D13       -0.00001   0.00000   0.00000   0.00001   0.00001   0.00000
   D14        3.14158   0.00000   0.00000   0.00001   0.00001   3.14159
   D15        0.00000   0.00000   0.00000   0.00000   0.00000   0.00000
   D16        3.14159   0.00000   0.00000   0.00000   0.00000   3.14159
   D17       -3.14159   0.00000   0.00000   0.00000   0.00000  -3.14159
   D18        0.00000   0.00000   0.00000   0.00000   0.00000   0.00000
   D19        0.00000   0.00000   0.00000   0.00000   0.00000   0.00000
   D20        3.14159   0.00000   0.00000   0.00000   0.00000   3.14159
   D21        3.14159   0.00000   0.00000   0.00000   0.00000   3.14159
   D22        0.00000   0.00000   0.00000   0.00000   0.00000   0.00000
   D23        0.00000   0.00000   0.00000   0.00000   0.00000   0.00000
   D24       -3.14159   0.00000   0.00000   0.00000   0.00000  -3.14159
   D25       -3.14159   0.00000   0.00000   0.00000   0.00000  -3.14159
   D26        0.00000   0.00000   0.00000   0.00000   0.00000   0.00000
         Item               Value     Threshold  Converged?
 Maximum Force            0.000005     0.000450     YES
 RMS     Force            0.000001     0.000300     YES
 Maximum Displacement     0.000044     0.001800     YES
 RMS     Displacement     0.000014     0.001200     YES
 Predicted change in Energy=-5.839926D-11
 Optimization completed.
    -- Stationary point found.
                           ----------------------------
                           !   Optimized Parameters   !
                           ! (Angstroms and Degrees)  !
 --------------------------                            --------------------------
 ! Name  Definition              Value          Derivative Info.                !
 --------------------------------------------------------------------------------
 ! R1    R(1,2)                  1.423          -DE/DX =    0.0                 !
 ! R2    R(1,6)                  1.3992         -DE/DX =    0.0                 !
 ! R3    R(1,7)                  1.0934         -DE/DX =    0.0                 !
 ! R4    R(2,3)                  1.3277         -DE/DX =    0.0                 !
 ! R5    R(3,4)                  1.401          -DE/DX =    0.0                 !
 ! R6    R(3,8)                  1.632          -DE/DX =    0.0                 !
 ! R7    R(4,5)                  1.3928         -DE/DX =    0.0                 !
 ! R8    R(4,12)                 1.462          -DE/DX =    0.0                 !
 ! R9    R(5,6)                  1.407          -DE/DX =    0.0                 !
 ! R10   R(5,11)                 1.0874         -DE/DX =    0.0                 !
 ! R11   R(6,10)                 1.0917         -DE/DX =    0.0                 !
 ! R12   R(8,9)                  1.1096         -DE/DX =    0.0                 !
 ! R13   R(12,13)                1.2359         -DE/DX =    0.0                 !
 ! R14   R(12,14)                1.2247         -DE/DX =    0.0                 !
 ! A1    A(2,1,6)              121.4241         -DE/DX =    0.0                 !
 ! A2    A(2,1,7)              120.122          -DE/DX =    0.0                 !
 ! A3    A(6,1,7)              118.454          -DE/DX =    0.0                 !
 ! A4    A(1,2,3)              112.4313         -DE/DX =    0.0                 !
 ! A5    A(2,3,4)              131.2994         -DE/DX =    0.0                 !
 ! A6    A(2,3,8)              113.0297         -DE/DX =    0.0                 !
 ! A7    A(4,3,8)              115.6708         -DE/DX =    0.0                 !
 ! A8    A(3,4,5)              114.6231         -DE/DX =    0.0                 !
 ! A9    A(3,4,12)             125.1857         -DE/DX =    0.0                 !
 ! A10   A(5,4,12)             120.1912         -DE/DX =    0.0                 !
 ! A11   A(4,5,6)              119.0125         -DE/DX =    0.0                 !
 ! A12   A(4,5,11)             119.0374         -DE/DX =    0.0                 !
 ! A13   A(6,5,11)             121.9501         -DE/DX =    0.0                 !
 ! A14   A(1,6,5)              121.2096         -DE/DX =    0.0                 !
 ! A15   A(1,6,10)             120.1919         -DE/DX =    0.0                 !
 ! A16   A(5,6,10)             118.5985         -DE/DX =    0.0                 !
 ! A17   A(3,8,9)              157.5863         -DE/DX =    0.0                 !
 ! A18   A(4,12,13)            117.0257         -DE/DX =    0.0                 !
 ! A19   A(4,12,14)            118.6003         -DE/DX =    0.0                 !
 ! A20   A(13,12,14)           124.374          -DE/DX =    0.0                 !
 ! D1    D(6,1,2,3)              0.0001         -DE/DX =    0.0                 !
 ! D2    D(7,1,2,3)           -179.9999         -DE/DX =    0.0                 !
 ! D3    D(2,1,6,5)             -0.0001         -DE/DX =    0.0                 !
 ! D4    D(2,1,6,10)           179.9999         -DE/DX =    0.0                 !
 ! D5    D(7,1,6,5)            179.9999         -DE/DX =    0.0                 !
 ! D6    D(7,1,6,10)            -0.0001         -DE/DX =    0.0                 !
 ! D7    D(1,2,3,4)             -0.0001         -DE/DX =    0.0                 !
 ! D8    D(1,2,3,8)           -180.0            -DE/DX =    0.0                 !
 ! D9    D(2,3,4,5)              0.0            -DE/DX =    0.0                 !
 ! D10   D(2,3,4,12)           180.0            -DE/DX =    0.0                 !
 ! D11   D(8,3,4,5)            179.9999         -DE/DX =    0.0                 !
 ! D12   D(8,3,4,12)            -0.0002         -DE/DX =    0.0                 !
 ! D13   D(2,3,8,9)             -0.0006         -DE/DX =    0.0                 !
 ! D14   D(4,3,8,9)            179.9995         -DE/DX =    0.0                 !
 ! D15   D(3,4,5,6)              0.0            -DE/DX =    0.0                 !
 ! D16   D(3,4,5,11)           180.0            -DE/DX =    0.0                 !
 ! D17   D(12,4,5,6)          -179.9999         -DE/DX =    0.0                 !
 ! D18   D(12,4,5,11)            0.0            -DE/DX =    0.0                 !
 ! D19   D(3,4,12,13)           -0.0002         -DE/DX =    0.0                 !
 ! D20   D(3,4,12,14)          179.9998         -DE/DX =    0.0                 !
 ! D21   D(5,4,12,13)          179.9997         -DE/DX =    0.0                 !
 ! D22   D(5,4,12,14)           -0.0003         -DE/DX =    0.0                 !
 ! D23   D(4,5,6,1)              0.0            -DE/DX =    0.0                 !
 ! D24   D(4,5,6,10)          -180.0            -DE/DX =    0.0                 !
 ! D25   D(11,5,6,1)          -179.9999         -DE/DX =    0.0                 !
 ! D26   D(11,5,6,10)            0.0001         -DE/DX =    0.0                 !
 --------------------------------------------------------------------------------
 GradGradGradGradGradGradGradGradGradGradGradGradGradGradGradGradGradGrad

                          Input orientation:                          
 ---------------------------------------------------------------------
 Center     Atomic      Atomic             Coordinates (Angstroms)
 Number     Number       Type             X           Y           Z
 ---------------------------------------------------------------------
      1          6           0       -1.895251    0.122733   -1.067419
      2          6           0       -0.474238    0.109217   -0.993862
      3          6           0       -0.009363    0.894607   -0.029582
      4          6           0       -0.670609    1.709442    0.898703
      5          6           0       -2.059603    1.696905    0.796149
      6          6           0       -2.663697    0.898477   -0.192433
      7          1           0       -2.411591   -0.481022   -1.818720
      8          7           0        1.619691    0.890082    0.067801
      9          7           0        2.662172    0.614797   -0.194133
     10          1           0       -3.752893    0.893731   -0.266800
     11          1           0       -2.644999    2.304306    1.482285
     12          7           0       -0.015899    2.529747    1.916525
     13          8           0        1.218953    2.496907    1.955344
     14          8           0       -0.713773    3.198472    2.668561
 ---------------------------------------------------------------------
                    Distance matrix (angstroms):
                    1          2          3          4          5
     1  C    0.000000
     2  C    1.422980   0.000000
     3  C    2.286803   1.327699   0.000000
     4  C    2.807674   2.486179   1.401040   0.000000
     5  C    2.444977   2.870240   2.351382   1.392832   0.000000
     6  C    1.399246   2.461494   2.659327   2.412601   1.407021
     7  H    1.093425   2.186803   3.296069   3.900454   3.421227
     8  N    3.772581   2.474150   1.631968   2.570451   3.836490
     9  N    4.666354   3.276010   2.691184   3.674229   4.944368
    10  H    2.164778   3.448719   3.751039   3.394740   2.154572
    11  H    3.438368   3.957515   3.349562   2.143046   1.087385
    12  N    4.269613   3.813056   2.541860   1.462021   2.474993
    13  O    4.946925   4.155211   2.831264   2.303700   3.568286
    14  O    4.981326   4.797314   3.617176   2.313325   2.751707
                    6          7          8          9         10
     6  C    0.000000
     7  H    2.147414   0.000000
     8  N    4.291293   4.657265   0.000000
     9  N    5.333418   5.439041   1.109575   0.000000
    10  H    1.091743   2.469310   5.382994   6.421537   0.000000
    11  H    2.186637   4.325409   4.710453   5.816432   2.505284
    12  N    3.757602   5.362473   2.963348   3.910751   4.626941
    13  O    4.716237   6.024323   2.511035   3.200854   5.676914
    14  O    4.156617   6.046235   4.187800   5.125173   4.812944
                   11         12         13         14
    11  H    0.000000
    12  N    2.674239   0.000000
    13  O    3.897564   1.235899   0.000000
    14  O    2.436477   1.224655   2.176305   0.000000
 Stoichiometry    C6H3N3O2
 Framework group  C1[X(C6H3N3O2)]
 Deg. of freedom    36
 Full point group                 C1      NOp   1
 Largest Abelian subgroup         C1      NOp   1
 Largest concise Abelian subgroup C1      NOp   1
                         Standard orientation:                         
 ---------------------------------------------------------------------
 Center     Atomic      Atomic             Coordinates (Angstroms)
 Number     Number       Type             X           Y           Z
 ---------------------------------------------------------------------
      1          6           0        2.600632    0.573940    0.000002
      2          6           0        1.484790    1.456986    0.000000
      3          6           0        0.325944    0.809021    0.000000
      4          6           0        0.032550   -0.560955    0.000000
      5          6           0        1.149130   -1.393559    0.000000
      6          6           0        2.431730   -0.815074    0.000000
      7          1           0        3.617828    0.975054    0.000003
      8          7           0       -0.964285    1.808336   -0.000003
      9          7           0       -1.516179    2.770922   -0.000001
     10          1           0        3.302199   -1.474001    0.000000
     11          1           0        1.003933   -2.471207    0.000000
     12          7           0       -1.312270   -1.134510    0.000001
     13          8           0       -2.260734   -0.342133    0.000005
     14          8           0       -1.429700   -2.353522   -0.000003
 ---------------------------------------------------------------------
 Rotational constants (GHZ):      1.4728696      1.2493640      0.6759707

 **********************************************************************

            Population analysis using the SCF density.

 **********************************************************************

 Orbital symmetries:
       Occupied  (A) (A) (A) (A) (A) (A) (A) (A) (A) (A) (A) (A)
                 (A) (A) (A) (A) (A) (A) (A) (A) (A) (A) (A) (A)
                 (A) (A) (A) (A) (A) (A) (A) (A) (A) (A) (A) (A)
                 (A) (A)
       Virtual   (A) (A) (A) (A) (A) (A) (A) (A) (A) (A) (A) (A)
                 (A) (A) (A) (A) (A) (A) (A) (A) (A) (A) (A) (A)
                 (A) (A) (A) (A) (A) (A) (A) (A) (A) (A) (A) (A)
                 (A) (A) (A) (A) (A) (A) (A) (A) (A) (A) (A) (A)
                 (A) (A) (A) (A) (A) (A) (A) (A) (A) (A) (A) (A)
                 (A) (A) (A) (A) (A) (A) (A) (A) (A) (A) (A) (A)
                 (A) (A) (A) (A) (A) (A) (A) (A) (A) (A) (A) (A)
                 (A) (A) (A) (A) (A) (A) (A) (A) (A) (A) (A) (A)
                 (A) (A) (A) (A) (A) (A) (A) (A) (A) (A) (A) (A)
                 (A) (A) (A) (A) (A) (A) (A) (A) (A) (A) (A) (A)
                 (A) (A) (A) (A) (A) (A) (A) (A) (A) (A) (A) (A)
                 (A) (A) (A) (A) (A) (A) (A) (A) (A) (A) (A) (A)
                 (A) (A) (A) (A) (A) (A) (A) (A) (A) (A) (A) (A)
                 (A) (A) (A) (A) (A) (A) (A) (A) (A) (A) (A) (A)
                 (A) (A) (A) (A) (A) (A) (A) (A) (A) (A) (A) (A)
                 (A) (A) (A) (A) (A) (A) (A) (A) (A) (A) (A) (A)
                 (A) (A) (A) (A) (A) (A) (A) (A) (A) (A) (A) (A)
                 (A) (A) (A) (A) (A) (A) (A) (A) (A) (A) (A) (A)
                 (A) (A) (A) (A) (A) (A) (A) (A) (A) (A) (A) (A)
                 (A) (A) (A) (A) (A) (A) (A) (A) (A) (A) (A) (A)
                 (A) (A)
 The electronic state is 1-A.
 Alpha  occ. eigenvalues --  -19.21062 -19.21015 -14.59923 -14.52600 -14.49978
 Alpha  occ. eigenvalues --  -10.29083 -10.28606 -10.23887 -10.23000 -10.22849
 Alpha  occ. eigenvalues --  -10.18507  -1.26005  -1.18938  -1.08698  -0.92003
 Alpha  occ. eigenvalues --   -0.82659  -0.81209  -0.73198  -0.69093  -0.62942
 Alpha  occ. eigenvalues --   -0.60797  -0.57158  -0.56528  -0.54280  -0.53434
 Alpha  occ. eigenvalues --   -0.53175  -0.51987  -0.49027  -0.47703  -0.42583
 Alpha  occ. eigenvalues --   -0.41098  -0.39928  -0.34574  -0.34514  -0.32650
 Alpha  occ. eigenvalues --   -0.30355  -0.29020  -0.23133
 Alpha virt. eigenvalues --   -0.13127  -0.10610  -0.09339  -0.02459  -0.02182
 Alpha virt. eigenvalues --   -0.01629   0.00409   0.00869   0.01326   0.03266
 Alpha virt. eigenvalues --    0.04069   0.04556   0.05565   0.06361   0.07168
 Alpha virt. eigenvalues --    0.07709   0.07936   0.08511   0.08849   0.09335
 Alpha virt. eigenvalues --    0.10342   0.10953   0.11042   0.11784   0.12031
 Alpha virt. eigenvalues --    0.12296   0.12353   0.13652   0.13845   0.14805
 Alpha virt. eigenvalues --    0.15211   0.16569   0.17155   0.18092   0.18175
 Alpha virt. eigenvalues --    0.18394   0.18902   0.19906   0.20154   0.21263
 Alpha virt. eigenvalues --    0.21720   0.21809   0.22518   0.23204   0.23732
 Alpha virt. eigenvalues --    0.24936   0.25425   0.26062   0.26599   0.26872
 Alpha virt. eigenvalues --    0.27177   0.28349   0.28579   0.29001   0.29195
 Alpha virt. eigenvalues --    0.29688   0.30460   0.30922   0.32152   0.33032
 Alpha virt. eigenvalues --    0.33733   0.35031   0.35153   0.36750   0.37874
 Alpha virt. eigenvalues --    0.38565   0.39118   0.41278   0.41612   0.42205
 Alpha virt. eigenvalues --    0.43775   0.43927   0.45774   0.47241   0.48923
 Alpha virt. eigenvalues --    0.49139   0.50514   0.50771   0.51072   0.51721
 Alpha virt. eigenvalues --    0.52941   0.53064   0.54566   0.55924   0.56538
 Alpha virt. eigenvalues --    0.56874   0.58370   0.58744   0.59063   0.59877
 Alpha virt. eigenvalues --    0.61430   0.61660   0.63434   0.64202   0.64956
 Alpha virt. eigenvalues --    0.66500   0.68136   0.68889   0.69979   0.70129
 Alpha virt. eigenvalues --    0.70659   0.70859   0.71894   0.73018   0.73129
 Alpha virt. eigenvalues --    0.74804   0.74911   0.75498   0.76580   0.77197
 Alpha virt. eigenvalues --    0.77232   0.77755   0.79051   0.81964   0.83756
 Alpha virt. eigenvalues --    0.84090   0.84580   0.87114   0.87707   0.88722
 Alpha virt. eigenvalues --    0.89717   0.91146   0.96106   0.97221   0.97644
 Alpha virt. eigenvalues --    1.00107   1.00799   1.01946   1.03577   1.03699
 Alpha virt. eigenvalues --    1.06334   1.07337   1.09239   1.09900   1.14227
 Alpha virt. eigenvalues --    1.15710   1.16621   1.18025   1.20222   1.20795
 Alpha virt. eigenvalues --    1.21196   1.22986   1.24279   1.25404   1.25644
 Alpha virt. eigenvalues --    1.28725   1.29074   1.29867   1.32543   1.33038
 Alpha virt. eigenvalues --    1.34566   1.35144   1.37542   1.38676   1.39418
 Alpha virt. eigenvalues --    1.40303   1.40776   1.42169   1.42954   1.43488
 Alpha virt. eigenvalues --    1.48098   1.49416   1.52831   1.53465   1.55754
 Alpha virt. eigenvalues --    1.57080   1.59119   1.60057   1.61309   1.61967
 Alpha virt. eigenvalues --    1.63223   1.64742   1.66504   1.70220   1.71468
 Alpha virt. eigenvalues --    1.73108   1.73802   1.77132   1.79703   1.80005
 Alpha virt. eigenvalues --    1.85859   1.87394   1.87814   1.90016   1.91848
 Alpha virt. eigenvalues --    1.92417   1.92841   1.96045   1.98854   2.00704
 Alpha virt. eigenvalues --    2.03109   2.03739   2.05224   2.05840   2.07633
 Alpha virt. eigenvalues --    2.08326   2.10157   2.14524   2.18982   2.19084
 Alpha virt. eigenvalues --    2.21176   2.26906   2.29577   2.30101   2.30942
 Alpha virt. eigenvalues --    2.32595   2.34798   2.37429   2.38736   2.42616
 Alpha virt. eigenvalues --    2.46292   2.48054   2.54889   2.56258   2.62244
 Alpha virt. eigenvalues --    2.66549   2.73758   2.74779   2.79809   2.82799
 Alpha virt. eigenvalues --    2.85586   2.87863   2.88483   3.04990   3.08176
 Alpha virt. eigenvalues --    3.11439   3.17480   3.25284   3.26740   3.29180
 Alpha virt. eigenvalues --    3.29481   3.35181   3.37499   3.43965   3.45070
 Alpha virt. eigenvalues --    3.56162   3.58224   3.58400   3.77798   3.79671
 Alpha virt. eigenvalues --    3.81941   4.16319
          Condensed to atoms (all electrons):
              1          2          3          4          5          6
     1  C    8.284432   0.161578  -0.433427  -1.099676   0.635930  -1.937056
     2  C    0.161578  10.646103  -0.503121  -1.100605  -1.865970   0.499288
     3  C   -0.433427  -0.503121  11.683244  -3.054183  -1.522217  -1.230725
     4  C   -1.099676  -1.100605  -3.054183  12.791930  -2.452463   0.155692
     5  C    0.635930  -1.865970  -1.522217  -2.452463  13.222620  -2.355655
     6  C   -1.937056   0.499288  -1.230725   0.155692  -2.355655  11.107940
     7  H   -0.932308  -0.215292   0.135921  -0.029612  -0.066543   0.498244
     8  N    0.101773  -0.324040   0.251773  -0.027720   0.010298  -0.075298
     9  N    0.070184   0.393677  -0.451896  -0.317987  -0.060134  -0.012072
    10  H    0.564424  -0.179775   0.031431  -0.154630   0.780382  -1.652961
    11  H   -0.104570   0.118682  -0.279163   0.849208  -1.816162   0.721777
    12  N    0.121550  -0.183200   0.035216  -0.599660   0.315636  -0.221791
    13  O   -0.011813   0.003528  -0.028299   0.164994  -0.025201  -0.013921
    14  O   -0.019374  -0.003400  -0.041023   0.123026   0.042666  -0.036564
              7          8          9         10         11         12
     1  C   -0.932308   0.101773   0.070184   0.564424  -0.104570   0.121550
     2  C   -0.215292  -0.324040   0.393677  -0.179775   0.118682  -0.183200
     3  C    0.135921   0.251773  -0.451896   0.031431  -0.279163   0.035216
     4  C   -0.029612  -0.027720  -0.317987  -0.154630   0.849208  -0.599660
     5  C   -0.066543   0.010298  -0.060134   0.780382  -1.816162   0.315636
     6  C    0.498244  -0.075298  -0.012072  -1.652961   0.721777  -0.221791
     7  H    2.476575  -0.013777   0.004275  -0.196670  -0.005952  -0.000649
     8  N   -0.013777   8.142119  -1.525649   0.006044  -0.009282  -0.002697
     9  N    0.004275  -1.525649   9.658180   0.000114  -0.000971  -0.010481
    10  H   -0.196670   0.006044   0.000114   2.716916  -0.193494   0.002816
    11  H   -0.005952  -0.009282  -0.000971  -0.193494   2.676049  -0.149552
    12  N   -0.000649  -0.002697  -0.010481   0.002816  -0.149552   7.888576
    13  O   -0.000409  -0.022750  -0.017900  -0.000079  -0.011112  -0.500051
    14  O   -0.000280  -0.007068  -0.004591   0.000506  -0.014162  -0.442306
             13         14
     1  C   -0.011813  -0.019374
     2  C    0.003528  -0.003400
     3  C   -0.028299  -0.041023
     4  C    0.164994   0.123026
     5  C   -0.025201   0.042666
     6  C   -0.013921  -0.036564
     7  H   -0.000409  -0.000280
     8  N   -0.022750  -0.007068
     9  N   -0.017900  -0.004591
    10  H   -0.000079   0.000506
    11  H   -0.011112  -0.014162
    12  N   -0.500051  -0.442306
    13  O    9.201028  -0.042346
    14  O   -0.042346   9.126488
 Mulliken atomic charges:
              1
     1  C    0.598352
     2  C   -1.447453
     3  C    1.406469
     4  C    0.751685
     5  C    1.156812
     6  C    0.553102
     7  H   -0.653522
     8  N    0.496274
     9  N   -0.724751
    10  H   -0.725024
    11  H   -0.781296
    12  N    0.746592
    13  O   -0.695669
    14  O   -0.681570
 Sum of Mulliken atomic charges =   0.00000
 Mulliken charges with hydrogens summed into heavy atoms:
              1
     1  C   -0.055170
     2  C   -1.447453
     3  C    1.406469
     4  C    0.751685
     5  C    0.375516
     6  C   -0.171922
     8  N    0.496274
     9  N   -0.724751
    12  N    0.746592
    13  O   -0.695669
    14  O   -0.681570
 Sum of Mulliken charges with hydrogens summed into heavy atoms =   0.00000
 Electronic spatial extent (au):  <R**2>=           1538.2679
 Charge=              0.0000 electrons
 Dipole moment (field-independent basis, Debye):
    X=              1.7056    Y=             -0.1454    Z=              0.0000  Tot=              1.7118
 Quadrupole moment (field-independent basis, Debye-Ang):
   XX=            -63.2171   YY=            -65.8635   ZZ=            -61.6889
   XY=            -10.4671   XZ=              0.0000   YZ=              0.0000
 Traceless Quadrupole moment (field-independent basis, Debye-Ang):
   XX=              0.3727   YY=             -2.2736   ZZ=              1.9009
   XY=            -10.4671   XZ=              0.0000   YZ=              0.0000
 Octapole moment (field-independent basis, Debye-Ang**2):
  XXX=             12.1753  YYY=            -12.8122  ZZZ=              0.0000  XYY=             -6.5826
  XXY=             -3.5203  XXZ=              0.0000  XZZ=            -14.6840  YZZ=             -2.4168
  YYZ=              0.0000  XYZ=              0.0000
 Hexadecapole moment (field-independent basis, Debye-Ang**3):
 XXXX=          -1039.4905 YYYY=           -928.5263 ZZZZ=            -64.4363 XXXY=            -30.2861
 XXXZ=              0.0002 YYYX=            -60.1331 YYYZ=             -0.0001 ZZZX=              0.0000
 ZZZY=              0.0000 XXYY=           -344.1694 XXZZ=           -198.3419 YYZZ=           -156.7440
 XXYZ=              0.0000 YYXZ=              0.0000 ZZXY=             -0.5680
 N-N= 5.457271724305D+02 E-N=-2.362491674744D+03  KE= 5.416922425519D+02
 1\1\GINC-LC06-1-7\FTS\RB3LYP\Aug-CC-pVDZ\C6H3N3O2\UBUNTU\19-Dec-2018\0
 \\# rb3lyp/aug-cc-pVDZ opt=(ts,noeigen,calcfc) freq=noraman\\2-NO2-C6H
 3\\0,1\C,-1.895251053,0.1227331475,-1.0674192887\C,-0.4742376329,0.109
 2167319,-0.9938624779\C,-0.0093631351,0.8946073096,-0.0295817687\C,-0.
 6706085088,1.709441828,0.8987034945\C,-2.0596030122,1.6969046268,0.796
 1489232\C,-2.6636966425,0.8984774097,-0.1924327635\H,-2.4115906827,-0.
 4810220326,-1.8187196292\N,1.6196907027,0.890081835,0.0678012545\N,2.6
 621716046,0.6147973519,-0.1941332285\H,-3.7528931876,0.8937305478,-0.2
 667998739\H,-2.6449989297,2.3043055139,1.48228518\N,-0.0158993184,2.52
 97466106,1.9165248335\O,1.2189528678,2.4969067755,1.9553440423\O,-0.71
 37730721,3.1984723445,2.6685613024\\Version=EM64L-G09RevB.01\State=1-A
 \HF=-544.9714293\RMSD=6.922e-09\RMSF=1.145e-06\Dipole=-0.5484965,-0.23
 38978,-0.3130439\Quadrupole=7.1218888,-2.6886472,-4.4332415,-0.3748198
 ,-0.0860779,-4.9067063\PG=C01 [X(C6H3N3O2)]\\@


 Standing in the middle of the road is very dangerous;
 you get knocked down by the traffic from both sides.
                                -- Margaret Thatcher
 Job cpu time:  0 days  1 hours 23 minutes  9.0 seconds.
 File lengths (MBytes):  RWF=    118 Int=      0 D2E=      0 Chk=      6 Scr=      1
 Normal termination of Gaussian 09 at Wed Dec 19 05:30:27 2018.
 Link1:  Proceeding to internal job step number  2.
[...]
   D25       -3.14159   0.00000   0.00000   0.00000   0.00000   3.14159
   D26        0.00000   0.00000   0.00000   0.00000   0.00000   0.00000
         Item               Value     Threshold  Converged?
 Maximum Force            0.000005     0.000450     YES
 RMS     Force            0.000001     0.000300     YES
 Maximum Displacement     0.000044     0.001800     YES
 RMS     Displacement     0.000014     0.001200     YES
 Predicted change in Energy=-5.560795D-11
 Optimization completed.
    -- Stationary point found.
                           ----------------------------
                           !   Optimized Parameters   !
                           ! (Angstroms and Degrees)  !
 --------------------------                            --------------------------
 ! Name  Definition              Value          Derivative Info.                !
 --------------------------------------------------------------------------------
 ! R1    R(1,2)                  1.423          -DE/DX =    0.0                 !
 ! R2    R(1,6)                  1.3992         -DE/DX =    0.0                 !
 ! R3    R(1,7)                  1.0934         -DE/DX =    0.0                 !
 ! R4    R(2,3)                  1.3277         -DE/DX =    0.0                 !
 ! R5    R(3,4)                  1.401          -DE/DX =    0.0                 !
 ! R6    R(3,8)                  1.632          -DE/DX =    0.0                 !
 ! R7    R(4,5)                  1.3928         -DE/DX =    0.0                 !
 ! R8    R(4,12)                 1.462          -DE/DX =    0.0                 !
 ! R9    R(5,6)                  1.407          -DE/DX =    0.0                 !
 ! R10   R(5,11)                 1.0874         -DE/DX =    0.0                 !
 ! R11   R(6,10)                 1.0917         -DE/DX =    0.0                 !
 ! R12   R(8,9)                  1.1096         -DE/DX =    0.0                 !
 ! R13   R(12,13)                1.2359         -DE/DX =    0.0                 !
 ! R14   R(12,14)                1.2247         -DE/DX =    0.0                 !
 ! A1    A(2,1,6)              121.4241         -DE/DX =    0.0                 !
 ! A2    A(2,1,7)              120.122          -DE/DX =    0.0                 !
 ! A3    A(6,1,7)              118.454          -DE/DX =    0.0                 !
 ! A4    A(1,2,3)              112.4313         -DE/DX =    0.0                 !
 ! A5    A(2,3,4)              131.2994         -DE/DX =    0.0                 !
 ! A6    A(2,3,8)              113.0297         -DE/DX =    0.0                 !
 ! A7    A(4,3,8)              115.6708         -DE/DX =    0.0                 !
 ! A8    A(3,4,5)              114.6231         -DE/DX =    0.0                 !
 ! A9    A(3,4,12)             125.1857         -DE/DX =    0.0                 !
 ! A10   A(5,4,12)             120.1912         -DE/DX =    0.0                 !
 ! A11   A(4,5,6)              119.0125         -DE/DX =    0.0                 !
 ! A12   A(4,5,11)             119.0374         -DE/DX =    0.0                 !
 ! A13   A(6,5,11)             121.9501         -DE/DX =    0.0                 !
 ! A14   A(1,6,5)              121.2096         -DE/DX =    0.0                 !
 ! A15   A(1,6,10)             120.1919         -DE/DX =    0.0                 !
 ! A16   A(5,6,10)             118.5985         -DE/DX =    0.0                 !
 ! A17   A(3,8,9)              157.5863         -DE/DX =    0.0                 !
 ! A18   A(4,12,13)            117.0257         -DE/DX =    0.0                 !
 ! A19   A(4,12,14)            118.6003         -DE/DX =    0.0                 !
 ! A20   A(13,12,14)           124.374          -DE/DX =    0.0                 !
 ! D1    D(6,1,2,3)              0.0001         -DE/DX =    0.0                 !
 ! D2    D(7,1,2,3)            180.0001         -DE/DX =    0.0                 !
 ! D3    D(2,1,6,5)             -0.0001         -DE/DX =    0.0                 !
 ! D4    D(2,1,6,10)          -180.0001         -DE/DX =    0.0                 !
 ! D5    D(7,1,6,5)           -180.0001         -DE/DX =    0.0                 !
 ! D6    D(7,1,6,10)            -0.0001         -DE/DX =    0.0                 !
 ! D7    D(1,2,3,4)             -0.0001         -DE/DX =    0.0                 !
 ! D8    D(1,2,3,8)            180.0            -DE/DX =    0.0                 !
 ! D9    D(2,3,4,5)              0.0            -DE/DX =    0.0                 !
 ! D10   D(2,3,4,12)          -180.0            -DE/DX =    0.0                 !
 ! D11   D(8,3,4,5)           -180.0001         -DE/DX =    0.0                 !
 ! D12   D(8,3,4,12)            -0.0002         -DE/DX =    0.0                 !
 ! D13   D(2,3,8,9)             -0.0006         -DE/DX =    0.0                 !
 ! D14   D(4,3,8,9)           -180.0005         -DE/DX =    0.0                 !
 ! D15   D(3,4,5,6)              0.0            -DE/DX =    0.0                 !
 ! D16   D(3,4,5,11)           180.0            -DE/DX =    0.0                 !
 ! D17   D(12,4,5,6)           180.0001         -DE/DX =    0.0                 !
 ! D18   D(12,4,5,11)            0.0            -DE/DX =    0.0                 !
 ! D19   D(3,4,12,13)           -0.0002         -DE/DX =    0.0                 !
 ! D20   D(3,4,12,14)         -180.0002         -DE/DX =    0.0                 !
 ! D21   D(5,4,12,13)         -180.0003         -DE/DX =    0.0                 !
 ! D22   D(5,4,12,14)           -0.0003         -DE/DX =    0.0                 !
 ! D23   D(4,5,6,1)              0.0            -DE/DX =    0.0                 !
 ! D24   D(4,5,6,10)           180.0            -DE/DX =    0.0                 !
 ! D25   D(11,5,6,1)           180.0001         -DE/DX =    0.0                 !
 ! D26   D(11,5,6,10)            0.0001         -DE/DX =    0.0                 !
 --------------------------------------------------------------------------------
 GradGradGradGradGradGradGradGradGradGradGradGradGradGradGradGradGradGrad

 1\1\GINC-LC06-1-7\Freq\RB3LYP\Aug-CC-pVDZ\C6H3N3O2\UBUNTU\19-Dec-2018\
 0\\#N Geom=AllCheck Guess=TCheck SCRF=Check GenChk RB3LYP/Aug-CC-pVDZ 
 Freq\\2-NO2-C6H3\\0,1\C,-1.895251053,0.1227331475,-1.0674192887\C,-0.4
 742376329,0.1092167319,-0.9938624779\C,-0.0093631351,0.8946073096,-0.0
 295817687\C,-0.6706085088,1.709441828,0.8987034945\C,-2.0596030122,1.6
 969046268,0.7961489232\C,-2.6636966425,0.8984774097,-0.1924327635\H,-2
 .4115906827,-0.4810220326,-1.8187196292\N,1.6196907027,0.890081835,0.0
 678012545\N,2.6621716046,0.6147973519,-0.1941332285\H,-3.7528931876,0.
 8937305478,-0.2667998739\H,-2.6449989297,2.3043055139,1.48228518\N,-0.
 0158993184,2.5297466106,1.9165248335\O,1.2189528678,2.4969067755,1.955
 3440423\O,-0.7137730721,3.1984723445,2.6685613024\\Version=EM64L-G09Re
 vB.01\State=1-A\HF=-544.9714293\RMSD=2.452e-09\RMSF=1.146e-06\ZeroPoin
 t=0.0846675\Thermal=0.093636\Dipole=-0.5484969,-0.2338977,-0.3130439\D
 ipoleDeriv=0.3522964,0.1323267,0.1836758,0.1829298,0.1527782,0.2674862
 ,0.2439124,0.2642938,0.2677851,-0.5633247,-0.0809964,-0.1127277,-0.308
 6524,-0.6370959,-0.414993,-0.3837307,-0.4006288,-0.805974,0.356459,0.1
 993574,0.25202,0.2978528,0.3930327,0.3396707,0.3692631,0.3334512,0.543
 7291,0.0048882,-0.2631929,-0.3190459,-0.3237076,-0.0776266,-0.226824,-
 0.3910804,-0.223007,-0.1943883,-0.1424495,0.162035,0.1893996,-0.037024
 9,-0.0159797,0.0823291,-0.0475673,0.0948881,0.0228555,0.1438308,0.0091
 679,0.0252723,0.0562948,-0.1551921,-0.0814884,0.0813739,-0.0844585,-0.
 179164,-0.0257478,-0.0376824,-0.0526932,-0.0713014,0.0429047,-0.070619
 5,-0.0927142,-0.0685008,0.0110547,0.6741621,-0.2516686,-0.263426,-0.29
 19265,0.1097382,-0.0077792,-0.3113383,-0.0052323,0.0749343,-0.7120376,
 -0.0560463,-0.1149773,0.2728904,0.1007672,0.0741394,0.2765898,0.053385
 3,0.1339489,-0.1114226,-0.003845,-0.0192633,0.0191706,0.1029427,-0.020
 72,0.0081355,-0.0221718,0.0954833,0.0902999,0.0185887,0.0187414,0.0147
 219,0.114786,-0.0338377,0.0141371,-0.0335941,0.1048914,1.5530403,-0.03
 08761,0.0448279,0.0586847,0.9277424,0.7985818,0.1514422,0.7929274,1.21
 34912,-1.0717773,0.0077776,-0.0438756,-0.0305982,-0.4175332,-0.2256021
 ,-0.0895587,-0.2231808,-0.5009732,-0.5482171,0.1950543,0.2120719,0.160
 6661,-0.6412646,-0.4803433,0.1711357,-0.4781718,-0.7876738\Polar=144.8
 380327,2.4297316,87.5480555,8.4974505,37.7153005,101.4281473\PG=C01 [X
 (C6H3N3O2)]\NImag=1\\0.59752238,0.01797923,0.36296969,0.05017062,0.264
 74514,0.45985174,-0.28304164,-0.01472091,-0.03224270,0.47694877,-0.007
 60799,-0.04768975,0.00195410,0.10540991,0.21305835,-0.02377536,0.00150
 533,-0.04944219,0.15164808,0.18623347,0.29346733,-0.01913441,-0.033342
 87,-0.04012481,-0.11828261,-0.02342048,-0.03321078,0.19690932,-0.03230
 823,-0.01344891,-0.00342675,-0.08498746,-0.16337355,-0.15962731,-0.037
 73492,0.36126993,-0.03889290,-0.00349183,-0.01889317,-0.10650209,-0.15
 574338,-0.22590619,-0.03790882,0.32558873,0.47096413,-0.04244077,0.019
 59764,0.02084383,0.04221649,0.00357610,0.00614327,-0.10865994,0.052871
 55,0.05895566,0.67339560,0.01691561,-0.01100506,-0.00841673,-0.0227223
 7,-0.00628088,-0.02357175,0.06918638,-0.14453467,-0.11352161,-0.055207
 68,0.32280568,0.01765090,-0.00824746,-0.01174272,-0.02516292,-0.021912
 85,-0.01535691,0.07837718,-0.11455077,-0.17692606,-0.03127250,0.229170
 08,0.39820705,0.05692963,-0.01075517,-0.00977483,-0.03337343,-0.013542
 63,-0.01781846,-0.05414490,0.04017265,0.04377035,-0.33152125,-0.005223
 12,-0.02318021,0.67784900,0.01635160,-0.01882032,-0.03199679,-0.011826
 57,-0.00729258,-0.00172128,0.00252817,0.01373406,0.00450156,0.03085100
 ,-0.08237728,-0.02153337,-0.04821665,0.37728867,0.02249401,-0.03370686
 ,-0.02978191,-0.01577580,-0.00182957,-0.00964657,-0.00104271,0.0068765
 1,0.01820681,0.01976346,-0.02380930,-0.08974987,-0.02320686,0.28433044
 ,0.47289749,-0.18002886,0.08415657,0.09293278,-0.03488172,0.01128404,0
 .01032748,-0.00626913,0.00357368,0.00407645,-0.02211130,-0.01667852,-0
 .02154498,-0.15872258,-0.06649278,-0.08494433,0.72396657,0.04305399,-0
 .15439668,-0.10356043,0.03629536,0.01742164,0.00595806,0.01694885,-0.0
 2120348,-0.02006361,-0.04856328,0.01125418,0.00475909,-0.02482473,-0.1
 5097298,-0.10158216,-0.01625392,0.34520559,0.04400315,-0.10096743,-0.1
 8253852,0.04010167,0.00438020,0.02208431,0.01999877,-0.02090738,-0.027
 07827,-0.05950152,0.00677082,0.00898889,-0.03534145,-0.10421094,-0.193
 24155,0.01769876,0.24714435,0.43205848,-0.10696567,-0.07090560,-0.0884
 4916,-0.02000609,-0.01191694,-0.01555351,-0.00402857,-0.00354004,-0.00
 484318,-0.00125414,0.00072331,0.00076756,-0.00075918,0.00221398,0.0020
 9827,0.00939599,0.01056815,0.01267289,0.12194644,-0.06716927,-0.133640
 67,-0.11224975,-0.00002250,0.00322628,0.00185471,0.00047670,0.00431289
 ,-0.00190907,0.00044956,0.00056222,0.00042647,0.00264349,0.00323274,-0
 .00521995,-0.00896396,-0.00324080,-0.01386724,0.07331671,0.12853888,-0
 .08400149,-0.11248544,-0.18211159,-0.00139394,0.00110431,0.00289371,-0
 .00006166,-0.00216245,0.00336371,0.00044167,0.00044365,0.00078380,0.00
 260956,-0.00524702,0.00167623,-0.01057860,-0.01263505,-0.00777537,0.09
 343487,0.12864840,0.18339610,-0.00614064,0.00583940,0.00533394,-0.0397
 0452,-0.06544045,-0.07917038,0.14314664,0.05170908,0.07106076,-0.06216
 905,0.01391127,0.01336218,0.01815400,0.01411006,0.01762708,0.00006171,
 -0.01071106,-0.01244910,0.00004366,0.00041026,0.00030582,1.21548820,-0
 .00207469,0.01684209,-0.00329494,-0.01153615,-0.02725043,-0.00982715,0
 .01254774,-0.01608499,-0.00941144,0.01093690,-0.00143858,0.01263671,0.
 00375343,0.00040765,-0.00522721,-0.00291558,-0.00536147,-0.00094700,0.
 00005508,0.00167809,-0.00149666,-0.33189022,0.13125999,-0.00408722,-0.
 00279598,0.01591374,-0.01500149,-0.01322725,-0.03629909,0.02444199,-0.
 00694114,-0.01423513,0.00982139,0.01282441,0.00441178,0.00529808,-0.00
 457393,-0.00011309,-0.00316904,-0.00143862,-0.00663301,-0.00011705,-0.
 00147425,0.00117590,-0.32002477,0.10473200,0.13017711,0.00110187,0.006
 50359,0.00817442,0.00918214,-0.00480012,-0.00559202,-0.04337683,0.0095
 7807,0.00877877,0.00505858,-0.00328975,-0.00395670,-0.00463599,-0.0015
 8656,-0.00210054,-0.00226374,0.00138979,0.00142220,0.00023051,-0.00035
 649,-0.00035179,-1.26177882,0.31830201,0.29996327,1.29570259,-0.000338
 66,-0.00765430,-0.00228526,-0.00436165,0.01418944,0.00799018,0.0008454
 7,-0.00396730,-0.00252767,0.00003067,0.00180608,-0.00463401,-0.0005204
 4,-0.00041472,0.00099450,0.00175654,0.00172756,0.00048010,-0.00014538,
 -0.00041305,0.00059423,0.32791312,-0.09878923,-0.08455422,-0.32656440,
 0.09456054,0.00002923,-0.00185345,-0.00795712,-0.00506981,0.00796225,0
 .01640492,-0.00161666,-0.00197664,-0.00425415,-0.00000398,-0.00484348,
 -0.00006562,-0.00083136,0.00092728,-0.00022631,0.00185877,0.00045688,0
 .00207854,-0.00010048,0.00058092,-0.00023475,0.31140423,-0.08516055,-0
 .09211237,-0.30737582,0.08494266,0.08762354,-0.01152712,-0.00289103,-0
 .00448535,-0.00179395,0.00110151,0.00090577,0.00205501,0.00144851,0.00
 158315,0.00063712,-0.00093901,-0.00146921,-0.00814438,0.00187389,0.001
 52486,-0.33488564,-0.00114648,-0.01998826,0.00074987,-0.00005922,0.000
 18283,-0.00088473,-0.00057404,-0.00043889,-0.00040098,0.00033747,0.000
 27781,0.35378474,0.01641247,0.00517706,0.00122520,0.00292515,0.0022397
 9,-0.00266490,-0.00068388,0.00100553,-0.00395643,-0.00068143,0.0017283
 4,-0.00537410,-0.01808891,0.00248597,-0.00180564,-0.00018696,-0.046821
 43,-0.00849885,-0.00035631,-0.00163578,0.00191761,0.00048607,-0.002310
 30,0.00294587,0.00049121,0.00058169,-0.00113733,0.00078740,0.03853372,
 0.01849410,0.00000731,0.00619314,0.00307661,-0.00277995,0.00151819,-0.
 00095519,-0.00382188,-0.00031709,-0.00116257,-0.00539035,-0.00028351,-
 0.02223939,-0.00054621,0.00099083,-0.01884603,-0.00855935,-0.05107029,
 -0.00017084,0.00193635,-0.00097122,0.00082300,0.00287902,-0.00128005,0
 .00046085,-0.00114704,0.00022675,0.02163238,0.01526149,0.04528774,-0.0
 0132361,-0.00198671,-0.00277043,-0.00065464,0.00046197,0.00052129,-0.0
 0299579,-0.00145788,-0.00208939,-0.01268046,0.01722273,0.01933369,-0.1
 4295003,0.08926851,0.09953342,0.01184504,-0.00873765,-0.00994085,0.000
 43711,-0.00050363,-0.00054402,-0.00173326,0.00133354,0.00128048,-0.000
 02198,-0.00024706,-0.00023445,0.00053125,0.00010244,0.00037303,0.14741
 125,-0.00173702,0.00174090,-0.00411106,-0.00076475,0.00005809,0.000259
 67,0.00023721,0.00165821,-0.00112234,-0.00077751,0.00501613,-0.0010360
 7,0.09074138,-0.13428700,-0.11103589,0.01004432,-0.00313396,-0.0085044
 9,0.00041662,-0.00054817,-0.00009908,-0.00042328,0.00226564,-0.0010592
 3,-0.00018556,-0.00062985,0.00039035,-0.00021193,-0.00159086,0.0021981
 0,-0.09618148,0.13373569,-0.00247319,-0.00412682,0.00003356,-0.0009390
 3,0.00033707,0.00014145,-0.00007153,-0.00122930,0.00114567,-0.00209433
 ,0.00009951,0.00583160,0.10128676,-0.11112883,-0.16210529,0.01241778,-
 0.00968939,-0.00620870,0.00055148,-0.00015714,-0.00059513,-0.00081087,
 -0.00094840,0.00195285,-0.00016123,0.00038647,-0.00051770,-0.00000120,
 0.00221793,-0.00080836,-0.10677369,0.12339004,0.16513770,-0.00489423,0
 .00293768,0.00328053,0.00246757,0.00391708,0.00413454,0.03064479,-0.00
 174810,0.00056720,-0.10114538,-0.00530869,-0.00773791,-0.01815838,-0.0
 2280637,-0.02819239,-0.00918716,0.00350396,0.00263818,-0.00040656,-0.0
 0014086,0.00015114,-0.00692644,0.00616474,0.00656154,-0.00500650,0.001
 87086,0.00201724,-0.00013810,-0.00067479,-0.00088634,-0.00146402,0.000
 21076,0.00051670,0.84527178,-0.00024027,-0.00110772,0.00040619,0.00809
 505,0.00753171,-0.00343173,-0.00472522,-0.02439365,-0.01584838,-0.0022
 6532,-0.09366814,-0.01800522,-0.02170108,-0.00354726,-0.00365523,0.002
 08813,0.01338485,-0.00192302,-0.00025682,-0.00333838,0.00250837,-0.001
 70799,0.00471313,-0.00091849,-0.00008622,-0.00159933,0.00009129,0.0006
 5585,0.00110169,-0.00004993,0.00260595,-0.00375102,0.00245693,-0.09974
 208,0.42650246,-0.00050268,0.00060676,-0.00077107,0.00910842,-0.003695
 32,0.00701899,-0.00297706,-0.01566067,-0.03016152,-0.00411501,-0.01819
 732,-0.10058538,-0.02687651,-0.00372487,-0.00775670,0.00095286,-0.0018
 3365,0.01298801,0.00001301,0.00251562,-0.00246349,-0.00281048,-0.00042
 172,0.00471472,-0.00031249,0.00021473,-0.00144465,0.00069768,-0.000133
 87,0.00106305,0.00336795,0.00230580,-0.00271940,-0.07941931,0.23698885
 ,0.49924395,-0.00011540,-0.00085343,-0.00102402,-0.00110339,0.00024963
 ,0.00025476,-0.01139016,0.00390894,0.00388013,-0.05639489,-0.01510235,
 -0.02277555,0.00761950,-0.00249421,-0.00269814,0.00075370,-0.00262430,
 -0.00293648,0.00036428,0.00000122,-0.00001757,0.00126565,-0.00172452,-
 0.00193467,0.00465635,-0.00033433,-0.00011476,-0.00006039,-0.00052163,
 -0.00060069,0.00168887,0.00059142,0.00078120,-0.49354413,-0.00197899,-
 0.02879075,0.63061337,-0.00096920,0.00068757,0.00074216,-0.00059881,-0
 .00137542,-0.00116227,0.00343754,0.00028612,-0.00047267,-0.02289817,0.
 01445694,-0.00761314,0.00095423,-0.00022796,-0.00416686,-0.00158840,-0
 .00157748,0.00066184,-0.00008645,0.00038051,-0.00034380,-0.00399409,-0
 .00486379,-0.00531656,0.00054037,0.00016656,0.00003298,-0.00018160,-0.
 00038966,-0.00002084,-0.00045601,0.00026709,-0.00026485,-0.01237477,-0
 .09632136,-0.02667024,-0.01810014,0.07143136,-0.00116184,0.00074946,0.
 00083166,-0.00075532,-0.00110875,-0.00179839,0.00331903,-0.00044286,0.
 00054751,-0.03205587,-0.00712130,0.00913872,0.00140703,-0.00438442,-0.
 00180770,-0.00170345,0.00059650,-0.00161503,-0.00012187,-0.00033828,0.
 00025436,-0.00463642,-0.00517340,-0.00706053,0.00092646,-0.00002220,0.
 00019953,-0.00019590,-0.00004230,-0.00044448,-0.00046565,-0.00019877,0
 .00019942,-0.04116616,-0.02601436,-0.10813881,0.01652723,0.05154803,0.
 08957691,0.00005848,-0.00155837,-0.00186481,0.00202701,0.00072838,0.00
 118532,-0.00447342,-0.00148585,-0.00243609,0.01706939,0.00651218,0.007
 60848,-0.00814200,-0.00377405,-0.00508033,0.00232714,0.00110131,0.0016
 2205,0.00025236,-0.00008199,-0.00017683,0.00117760,-0.00237825,-0.0025
 9361,0.00155280,-0.00024222,-0.00023996,0.00007730,-0.00001083,0.00000
 109,0.00191029,-0.00196021,-0.00222885,-0.23751323,0.11925901,0.131664
 37,-0.08435337,0.05631552,0.06008272,0.30802966,0.00173242,0.00034611,
 0.00026890,-0.00118430,-0.00446269,-0.00179502,-0.00630069,0.00473982,
 -0.00202186,0.01207998,-0.01832497,-0.04408536,0.00460755,0.00079102,-
 0.00016277,0.00017684,-0.00228555,0.00038905,-0.00008630,0.00088524,-0
 .00074709,-0.00021217,-0.00106778,0.00179739,0.00006406,0.00043590,-0.
 00041315,-0.00020132,-0.00010577,0.00003330,-0.00142471,-0.00080090,-0
 .00134323,0.12419058,-0.22550698,-0.17229411,0.03898270,0.01707953,-0.
 00804736,-0.17242463,0.22827702,0.00205267,0.00006125,0.00041444,-0.00
 109167,-0.00167432,-0.00507958,-0.00816775,-0.00171808,0.00354376,0.01
 423651,-0.04443663,-0.03265177,0.00489730,-0.00069162,0.00065761,0.000
 52156,0.00044738,-0.00203747,-0.00018196,-0.00074679,0.00060773,-0.000
 01499,0.00166072,-0.00061283,0.00012463,-0.00043247,0.00027939,-0.0002
 2567,0.00004531,-0.00010470,-0.00159138,-0.00137701,-0.00148767,0.1375
 3502,-0.17260525,-0.27098770,0.03944930,-0.00695379,0.02011684,-0.1875
 4357,0.22842129,0.28734197\\0.00000035,0.00000135,0.00000167,0.0000035
 4,-0.00000150,-0.00000160,-0.00000015,0.00000131,0.00000160,0.00000040
 ,0.00000002,0.00000002,0.00000057,0.00000021,0.00000028,-0.00000086,-0
 .00000052,-0.00000068,-0.00000024,0.00000026,0.00000030,-0.00000166,0.
 ,-0.00000016,-0.00000365,-0.00000024,-0.00000049,-0.00000025,0.0000003
 6,0.00000040,-0.00000002,0.00000010,0.00000012,-0.00000067,-0.00000027
 ,-0.00000039,0.00000229,-0.00000129,-0.00000137,0.00000035,0.00000022,
 0.00000030\\\@


 A leading authority is anyone who has guessed right more than once.
 -- Frank A. Clark
 Job cpu time:  0 days  1 hours 10 minutes 24.5 seconds.
 File lengths (MBytes):  RWF=    119 Int=      0 D2E=      0 Chk=      6 Scr=      1
 Normal termination of Gaussian 09 at Wed Dec 19 05:40:31 2018.
