 Entering Gaussian System, Link 0=/home/ubuntu/g09/g09
 Input=3-NO2-C6H3-N2-v1-TS.gjf
 Output=3-NO2-C6H3-N2-v1-TS.log
 Initial command:
 /home/ubuntu/g09/l1.exe /home/ubuntu/g09/Gau-12610.inp -scrdir=/home/ubuntu/g09/
 Entering Link 1 = /home/ubuntu/g09/l1.exe PID=     12612.
  
 Copyright (c) 1988,1990,1992,1993,1995,1998,2003,2009,2010,
            Gaussian, Inc.  All Rights Reserved.
  
 This is part of the Gaussian(R) 09 program.  It is based on
 the Gaussian(R) 03 system (copyright 2003, Gaussian, Inc.),
 the Gaussian(R) 98 system (copyright 1998, Gaussian, Inc.),
 the Gaussian(R) 94 system (copyright 1995, Gaussian, Inc.),
 the Gaussian 92(TM) system (copyright 1992, Gaussian, Inc.),
 the Gaussian 90(TM) system (copyright 1990, Gaussian, Inc.),
 the Gaussian 88(TM) system (copyright 1988, Gaussian, Inc.),
 the Gaussian 86(TM) system (copyright 1986, Carnegie Mellon
 University), and the Gaussian 82(TM) system (copyright 1983,
 Carnegie Mellon University). Gaussian is a federally registered
 trademark of Gaussian, Inc.
  
 This software contains proprietary and confidential information,
 including trade secrets, belonging to Gaussian, Inc.
  
 This software is provided under written license and may be
 used, copied, transmitted, or stored only in accord with that
 written license.
  
 The following legend is applicable only to US Government
 contracts under FAR:
  
                    RESTRICTED RIGHTS LEGEND
  
 Use, reproduction and disclosure by the US Government is
 subject to restrictions as set forth in subparagraphs (a)
 and (c) of the Commercial Computer Software - Restricted
 Rights clause in FAR 52.227-19.
  
 Gaussian, Inc.
 340 Quinnipiac St., Bldg. 40, Wallingford CT 06492
  
  
 ---------------------------------------------------------------
 Warning -- This program may not be used in any manner that
 competes with the business of Gaussian, Inc. or will provide
 assistance to any competitor of Gaussian, Inc.  The licensee
 of this program is prohibited from giving any competitor of
 Gaussian, Inc. access to this program.  By using this program,
 the user acknowledges that Gaussian, Inc. is engaged in the
 business of creating and licensing software in the field of
 computational chemistry and represents and warrants to the
 licensee that it is not a competitor of Gaussian, Inc. and that
 it will not use this program in any manner prohibited above.
 ---------------------------------------------------------------
  

 Cite this work as:
 Gaussian 09, Revision B.01,
 M. J. Frisch, G. W. Trucks, H. B. Schlegel, G. E. Scuseria, 
 M. A. Robb, J. R. Cheeseman, G. Scalmani, V. Barone, B. Mennucci, 
 G. A. Petersson, H. Nakatsuji, M. Caricato, X. Li, H. P. Hratchian, 
 A. F. Izmaylov, J. Bloino, G. Zheng, J. L. Sonnenberg, M. Hada, 
 M. Ehara, K. Toyota, R. Fukuda, J. Hasegawa, M. Ishida, T. Nakajima, 
 Y. Honda, O. Kitao, H. Nakai, T. Vreven, J. A. Montgomery, Jr., 
 J. E. Peralta, F. Ogliaro, M. Bearpark, J. J. Heyd, E. Brothers, 
 K. N. Kudin, V. N. Staroverov, T. Keith, R. Kobayashi, J. Normand, 
 K. Raghavachari, A. Rendell, J. C. Burant, S. S. Iyengar, J. Tomasi, 
 M. Cossi, N. Rega, J. M. Millam, M. Klene, J. E. Knox, J. B. Cross, 
 V. Bakken, C. Adamo, J. Jaramillo, R. Gomperts, R. E. Stratmann, 
 O. Yazyev, A. J. Austin, R. Cammi, C. Pomelli, J. W. Ochterski, 
 R. L. Martin, K. Morokuma, V. G. Zakrzewski, G. A. Voth, 
 P. Salvador, J. J. Dannenberg, S. Dapprich, A. D. Daniels, 
 O. Farkas, J. B. Foresman, J. V. Ortiz, J. Cioslowski, 
 and D. J. Fox, Gaussian, Inc., Wallingford CT, 2010.
 
 ******************************************
 Gaussian 09:  EM64L-G09RevB.01 12-Aug-2010
                19-Dec-2018 
 ******************************************
 %chk=3-NO2-C6H3-N2-v1-TS.chk
 %mem=500MW
 %nproc=7
 Will use up to    7 processors via shared memory.
 ---------------------------------------------------------
 # rb3lyp/aug-cc-pVDZ opt=(ts,noeigen,calcfc) freq=noraman
 ---------------------------------------------------------
 1/5=1,10=4,11=1,14=-1,18=20,26=3,38=1/1,3;
 2/9=110,12=2,17=6,18=5,40=1/2;
 3/5=16,7=10,11=2,16=1,25=1,30=1,71=2,74=-5,116=1/1,2,3;
 4//1;
 5/5=2,38=5/2;
 8/6=4,10=90,11=11/1;
 11/6=1,8=1,9=11,15=111,16=1/1,2,10;
 10/6=1,7=6,13=1/2;
 6/7=2,8=2,9=2,10=2,28=1/1;
 7/10=1,18=20,25=1/1,2,3,16;
 1/5=1,10=4,11=1,14=-1,18=20/3(2);
 2/9=110/2;
 99//99;
 2/9=110/2;
 3/5=16,7=10,11=2,16=1,25=1,30=1,71=1,74=-5,116=1/1,2,3;
 4/5=5,16=3/1;
 5/5=2,38=5/2;
 7//1,2,3,16;
 1/5=1,11=1,14=-1,18=20/3(-5);
 2/9=110/2;
 6/7=2,8=2,9=2,10=2,19=2,28=1/1;
 99/9=1/99;
 ----------------
 3-NO2-C6H3-N2-v1
 ----------------
 Symbolic Z-matrix:
 Charge =  0 Multiplicity = 1
 C                    -1.8823    0.12509  -1.09288 
 C                    -0.56055  -0.22001  -0.68941 
 C                    -0.12835   0.62069   0.2676 
 C                    -0.67985   1.71654   0.92282 
 C                    -1.96796   1.98464   0.47052 
 C                    -2.57581   1.19975  -0.53144 
 H                    -2.38548  -0.46027  -1.86664 
 H                    -0.19918   2.31353   1.69468 
 N                     1.35696   0.27472   0.75729 
 N                     2.35545  -0.19685   0.87988 
 H                    -3.58614   1.45377  -0.84833 
 N                    -2.69746   3.11654   1.06228 
 O                    -3.83382   3.33968   0.65463 
 O                    -2.12682   3.77037   1.93431 
 

 GradGradGradGradGradGradGradGradGradGradGradGradGradGradGradGradGradGrad
 Berny optimization.
 Initialization pass.
                           ----------------------------
                           !    Initial Parameters    !
                           ! (Angstroms and Degrees)  !
 --------------------------                            --------------------------
 ! Name  Definition              Value          Derivative Info.                !
 --------------------------------------------------------------------------------
 ! R1    R(1,2)                  1.4244         calculate D2E/DX2 analytically  !
 ! R2    R(1,6)                  1.3968         calculate D2E/DX2 analytically  !
 ! R3    R(1,7)                  1.093          calculate D2E/DX2 analytically  !
 ! R4    R(2,3)                  1.3452         calculate D2E/DX2 analytically  !
 ! R5    R(3,4)                  1.3908         calculate D2E/DX2 analytically  !
 ! R6    R(3,9)                  1.6018         calculate D2E/DX2 analytically  !
 ! R7    R(4,5)                  1.3913         calculate D2E/DX2 analytically  !
 ! R8    R(4,8)                  1.0878         calculate D2E/DX2 analytically  !
 ! R9    R(5,6)                  1.4105         calculate D2E/DX2 analytically  !
 ! R10   R(5,12)                 1.4709         calculate D2E/DX2 analytically  !
 ! R11   R(6,11)                 1.0889         calculate D2E/DX2 analytically  !
 ! R12   R(9,10)                 1.111          calculate D2E/DX2 analytically  !
 ! R13   R(12,13)                1.2277         calculate D2E/DX2 analytically  !
 ! R14   R(12,14)                1.2303         calculate D2E/DX2 analytically  !
 ! A1    A(2,1,6)              122.2264         calculate D2E/DX2 analytically  !
 ! A2    A(2,1,7)              119.8667         calculate D2E/DX2 analytically  !
 ! A3    A(6,1,7)              117.9069         calculate D2E/DX2 analytically  !
 ! A4    A(1,2,3)              110.3803         calculate D2E/DX2 analytically  !
 ! A5    A(2,3,4)              134.4432         calculate D2E/DX2 analytically  !
 ! A6    A(2,3,9)              112.3618         calculate D2E/DX2 analytically  !
 ! A7    A(4,3,9)              113.195          calculate D2E/DX2 analytically  !
 ! A8    A(3,4,5)              111.457          calculate D2E/DX2 analytically  !
 ! A9    A(3,4,8)              126.2637         calculate D2E/DX2 analytically  !
 ! A10   A(5,4,8)              122.2793         calculate D2E/DX2 analytically  !
 ! A11   A(4,5,6)              121.5134         calculate D2E/DX2 analytically  !
 ! A12   A(4,5,12)             118.4684         calculate D2E/DX2 analytically  !
 ! A13   A(6,5,12)             120.0182         calculate D2E/DX2 analytically  !
 ! A14   A(1,6,5)              119.9797         calculate D2E/DX2 analytically  !
 ! A15   A(1,6,11)             121.5456         calculate D2E/DX2 analytically  !
 ! A16   A(5,6,11)             118.4747         calculate D2E/DX2 analytically  !
 ! A17   A(3,9,10)             163.4917         calculate D2E/DX2 analytically  !
 ! A18   A(5,12,13)            117.7316         calculate D2E/DX2 analytically  !
 ! A19   A(5,12,14)            117.6514         calculate D2E/DX2 analytically  !
 ! A20   A(13,12,14)           124.6165         calculate D2E/DX2 analytically  !
 ! D1    D(6,1,2,3)              0.0022         calculate D2E/DX2 analytically  !
 ! D2    D(7,1,2,3)           -179.9994         calculate D2E/DX2 analytically  !
 ! D3    D(2,1,6,5)             -0.0003         calculate D2E/DX2 analytically  !
 ! D4    D(2,1,6,11)           179.9987         calculate D2E/DX2 analytically  !
 ! D5    D(7,1,6,5)           -179.9987         calculate D2E/DX2 analytically  !
 ! D6    D(7,1,6,11)             0.0003         calculate D2E/DX2 analytically  !
 ! D7    D(1,2,3,4)             -0.0021         calculate D2E/DX2 analytically  !
 ! D8    D(1,2,3,9)            179.9974         calculate D2E/DX2 analytically  !
 ! D9    D(2,3,4,5)             -0.0002         calculate D2E/DX2 analytically  !
 ! D10   D(2,3,4,8)           -179.9987         calculate D2E/DX2 analytically  !
 ! D11   D(9,3,4,5)           -179.9997         calculate D2E/DX2 analytically  !
 ! D12   D(9,3,4,8)              0.0018         calculate D2E/DX2 analytically  !
 ! D13   D(2,3,9,10)            -0.0239         calculate D2E/DX2 analytically  !
 ! D14   D(4,3,9,10)           179.9757         calculate D2E/DX2 analytically  !
 ! D15   D(3,4,5,6)              0.0025         calculate D2E/DX2 analytically  !
 ! D16   D(3,4,5,12)          -179.9971         calculate D2E/DX2 analytically  !
 ! D17   D(8,4,5,6)           -179.9989         calculate D2E/DX2 analytically  !
 ! D18   D(8,4,5,12)             0.0015         calculate D2E/DX2 analytically  !
 ! D19   D(4,5,6,1)             -0.0023         calculate D2E/DX2 analytically  !
 ! D20   D(4,5,6,11)           179.9986         calculate D2E/DX2 analytically  !
 ! D21   D(12,5,6,1)           179.9972         calculate D2E/DX2 analytically  !
 ! D22   D(12,5,6,11)           -0.0018         calculate D2E/DX2 analytically  !
 ! D23   D(4,5,12,13)         -179.8913         calculate D2E/DX2 analytically  !
 ! D24   D(4,5,12,14)           -0.1194         calculate D2E/DX2 analytically  !
 ! D25   D(6,5,12,13)            0.1091         calculate D2E/DX2 analytically  !
 ! D26   D(6,5,12,14)          179.881          calculate D2E/DX2 analytically  !
 --------------------------------------------------------------------------------
 Trust Radius=3.00D-01 FncErr=1.00D-07 GrdErr=1.00D-06
 Number of steps in this run=     70 maximum allowed number of steps=    100.
 Search for a saddle point of order  1.
 GradGradGradGradGradGradGradGradGradGradGradGradGradGradGradGradGradGrad

                          Input orientation:                          
 ---------------------------------------------------------------------
 Center     Atomic      Atomic             Coordinates (Angstroms)
 Number     Number       Type             X           Y           Z
 ---------------------------------------------------------------------
      1          6           0       -1.882300    0.125090   -1.092880
      2          6           0       -0.560550   -0.220010   -0.689410
      3          6           0       -0.128350    0.620690    0.267600
      4          6           0       -0.679850    1.716540    0.922820
      5          6           0       -1.967960    1.984640    0.470520
      6          6           0       -2.575810    1.199750   -0.531440
      7          1           0       -2.385480   -0.460270   -1.866640
      8          1           0       -0.199180    2.313530    1.694680
      9          7           0        1.356960    0.274720    0.757290
     10          7           0        2.355450   -0.196850    0.879880
     11          1           0       -3.586140    1.453770   -0.848330
     12          7           0       -2.697460    3.116540    1.062280
     13          8           0       -3.833820    3.339680    0.654630
     14          8           0       -2.126820    3.770370    1.934310
 ---------------------------------------------------------------------
                    Distance matrix (angstroms):
                    1          2          3          4          5
     1  C    0.000000
     2  C    1.424396   0.000000
     3  C    2.274394   1.345155   0.000000
     4  C    2.835780   2.522646   1.390810   0.000000
     5  C    2.430943   2.861245   2.299065   1.391287   0.000000
     6  C    1.396805   2.470212   2.638908   2.444710   1.410481
     7  H    1.092951   2.184940   3.289087   3.927946   3.407965
     8  H    3.923347   3.497613   2.215238   1.087754   2.176079
     9  N    3.733406   2.452457   1.601761   2.500968   3.749821
    10  N    4.685505   3.311535   2.685614   3.588308   4.859871
    11  H    2.174458   3.461357   3.727685   3.413582   2.153995
    12  N    3.775973   4.332132   3.668939   2.459715   1.470900
    13  O    4.146783   5.019177   4.612289   3.557251   2.313323
    14  O    4.744653   5.025957   4.085620   2.708330   2.314465
                    6          7          8          9         10
     6  C    0.000000
     7  H    2.138843   0.000000
     8  H    3.441582   5.015663   0.000000
     9  N    4.240659   4.629371   2.730754   0.000000
    10  N    5.315980   5.485360   3.673151   1.111031   0.000000
    11  H    1.088904   2.478324   4.321757   5.329391   6.404198
    12  N    2.495762   4.633516   2.699288   4.960573   6.045140
    13  O    2.751118   4.784779   3.917307   6.028990   7.131959
    14  O    3.590209   5.693192   2.428086   5.073625   6.077944
                   11         12         13         14
    11  H    0.000000
    12  N    2.684211   0.000000
    13  O    2.424230   1.227715   0.000000
    14  O    3.903759   1.230268   2.176448   0.000000
 Stoichiometry    C6H3N3O2
 Framework group  C1[X(C6H3N3O2)]
 Deg. of freedom    36
 Full point group                 C1      NOp   1
 Largest Abelian subgroup         C1      NOp   1
 Largest concise Abelian subgroup C1      NOp   1
                         Standard orientation:                         
 ---------------------------------------------------------------------
 Center     Atomic      Atomic             Coordinates (Angstroms)
 Number     Number       Type             X           Y           Z
 ---------------------------------------------------------------------
      1          6           0        0.463589    2.130778   -0.000225
      2          6           0        1.682081    1.393091   -0.000284
      3          6           0        1.429775    0.071810    0.000097
      4          6           0        0.271775   -0.698507    0.000559
      5          6           0       -0.869144    0.097725    0.000639
      6          6           0       -0.785561    1.505727    0.000227
      7          1           0        0.488851    3.223436   -0.000513
      8          1           0        0.221837   -1.785114    0.000855
      9          7           0        2.770491   -0.804615   -0.000018
     10          7           0        3.834860   -1.123218   -0.000332
     11          1           0       -1.710291    2.080693    0.000288
     12          7           0       -2.184114   -0.561366    0.001177
     13          8           0       -3.181778    0.154138   -0.000820
     14          8           0       -2.206240   -1.791434   -0.000741
 ---------------------------------------------------------------------
 Rotational constants (GHZ):      2.3858999      0.7202637      0.5532475
 Standard basis: Aug-CC-pVDZ (5D, 7F)
 There are   280 symmetry adapted basis functions of A   symmetry.
 Integral buffers will be    131072 words long.
 Raffenetti 2 integral format.
 Two-electron integral symmetry is turned on.
   280 basis functions,   506 primitive gaussians,   302 cartesian basis functions
    38 alpha electrons       38 beta electrons
       nuclear repulsion energy       530.4365617484 Hartrees.
 NAtoms=   14 NActive=   14 NUniq=   14 SFac= 1.00D+00 NAtFMM=   50 NAOKFM=F Big=F
 One-electron integrals computed using PRISM.
 NBasis=   280 RedAO= T  NBF=   280
 NBsUse=   280 1.00D-06 NBFU=   280
 Harris functional with IExCor=  402 diagonalized for initial guess.
 ExpMin= 2.97D-02 ExpMax= 1.17D+04 ExpMxC= 4.01D+02 IAcc=3 IRadAn=         0 AccDes= 0.00D+00
 HarFok:  IExCor=  402 AccDes= 0.00D+00 IRadAn=         0 IDoV= 1
 ScaDFX=  1.000000  1.000000  1.000000  1.000000
 FoFCou: FMM=F IPFlag=           0 FMFlag=      100000 FMFlg1=           0
         NFxFlg=           0 DoJE=T BraDBF=F KetDBF=T FulRan=T
         Omega=  0.000000  0.000000  1.000000  0.000000  0.000000 ICntrl=     500 IOpCl=  0
         NMat0=    1 NMatS0=    1 NMatT0=    0 NMatD0=    1 NMtDS0=    0 NMtDT0=    0
         I1Cent=           4 NGrid=           0.
 Petite list used in FoFCou.
 Initial guess orbital symmetries:
       Occupied  (A) (A) (A) (A) (A) (A) (A) (A) (A) (A) (A) (A)
                 (A) (A) (A) (A) (A) (A) (A) (A) (A) (A) (A) (A)
                 (A) (A) (A) (A) (A) (A) (A) (A) (A) (A) (A) (A)
                 (A) (A)
       Virtual   (A) (A) (A) (A) (A) (A) (A) (A) (A) (A) (A) (A)
                 (A) (A) (A) (A) (A) (A) (A) (A) (A) (A) (A) (A)
                 (A) (A) (A) (A) (A) (A) (A) (A) (A) (A) (A) (A)
                 (A) (A) (A) (A) (A) (A) (A) (A) (A) (A) (A) (A)
                 (A) (A) (A) (A) (A) (A) (A) (A) (A) (A) (A) (A)
                 (A) (A) (A) (A) (A) (A) (A) (A) (A) (A) (A) (A)
                 (A) (A) (A) (A) (A) (A) (A) (A) (A) (A) (A) (A)
                 (A) (A) (A) (A) (A) (A) (A) (A) (A) (A) (A) (A)
                 (A) (A) (A) (A) (A) (A) (A) (A) (A) (A) (A) (A)
                 (A) (A) (A) (A) (A) (A) (A) (A) (A) (A) (A) (A)
                 (A) (A) (A) (A) (A) (A) (A) (A) (A) (A) (A) (A)
                 (A) (A) (A) (A) (A) (A) (A) (A) (A) (A) (A) (A)
                 (A) (A) (A) (A) (A) (A) (A) (A) (A) (A) (A) (A)
                 (A) (A) (A) (A) (A) (A) (A) (A) (A) (A) (A) (A)
                 (A) (A) (A) (A) (A) (A) (A) (A) (A) (A) (A) (A)
                 (A) (A) (A) (A) (A) (A) (A) (A) (A) (A) (A) (A)
                 (A) (A) (A) (A) (A) (A) (A) (A) (A) (A) (A) (A)
                 (A) (A) (A) (A) (A) (A) (A) (A) (A) (A) (A) (A)
                 (A) (A) (A) (A) (A) (A) (A) (A) (A) (A) (A) (A)
                 (A) (A) (A) (A) (A) (A) (A) (A) (A) (A) (A) (A)
                 (A) (A)
 The electronic state of the initial guess is 1-A.
 Requested convergence on RMS density matrix=1.00D-08 within 128 cycles.
 Requested convergence on MAX density matrix=1.00D-06.
 Requested convergence on             energy=1.00D-06.
 No special actions if energy rises.
 EnCoef did     2 forward-backward iterations
 EnCoef did     2 forward-backward iterations
 SCF Done:  E(RB3LYP) =  -544.974245091     A.U. after   19 cycles
             Convg  =    0.5874D-08             -V/T =  2.0061
 Range of M.O.s used for correlation:     1   280
 NBasis=   280 NAE=    38 NBE=    38 NFC=     0 NFV=     0
 NROrb=    280 NOA=    38 NOB=    38 NVA=   242 NVB=   242

 **** Warning!!: The largest alpha MO coefficient is  0.11274252D+03

 Symmetrizing basis deriv contribution to polar:
 IMax=3 JMax=2 DiffMx= 0.00D+00
 G2DrvN: will do    15 centers at a time, making    1 passes doing MaxLOS=2.
 Calling FoFCou, ICntrl=  3107 FMM=F I1Cent=   0 AccDes= 0.00D+00.
 FoFDir/FoFCou used for L=0 through L=2.
 End of G2Drv Frequency-dependent properties file   721 does not exist.
 End of G2Drv Frequency-dependent properties file   722 does not exist.
          IDoAtm=11111111111111
          Differentiating once with respect to nuclear coordinates.
          There are    45 degrees of freedom in the 1st order CPHF.  IDoFFX=5.
     39 vectors produced by pass  0 Test12= 2.04D-10 2.22D-07 XBig12= 7.40D-01 2.43D-01.
 AX will form    39 AO Fock derivatives at one time.
     39 vectors produced by pass  1 Test12= 2.04D-10 2.22D-07 XBig12= 2.44D-01 1.77D-01.
     39 vectors produced by pass  2 Test12= 2.04D-10 2.22D-07 XBig12= 3.66D-03 9.53D-03.
     39 vectors produced by pass  3 Test12= 2.04D-10 2.22D-07 XBig12= 7.19D-05 9.82D-04.
     39 vectors produced by pass  4 Test12= 2.04D-10 2.22D-07 XBig12= 2.68D-07 9.40D-05.
     19 vectors produced by pass  5 Test12= 2.04D-10 2.22D-07 XBig12= 5.52D-10 2.98D-06.
 Inverted reduced A of dimension   214 with in-core refinement.
 End of Minotr Frequency-dependent properties file   721 does not exist.
 End of Minotr Frequency-dependent properties file   722 does not exist.

 **********************************************************************

            Population analysis using the SCF density.

 **********************************************************************

 Orbital symmetries:
       Occupied  (A) (A) (A) (A) (A) (A) (A) (A) (A) (A) (A) (A)
                 (A) (A) (A) (A) (A) (A) (A) (A) (A) (A) (A) (A)
                 (A) (A) (A) (A) (A) (A) (A) (A) (A) (A) (A) (A)
                 (A) (A)
       Virtual   (A) (A) (A) (A) (A) (A) (A) (A) (A) (A) (A) (A)
                 (A) (A) (A) (A) (A) (A) (A) (A) (A) (A) (A) (A)
                 (A) (A) (A) (A) (A) (A) (A) (A) (A) (A) (A) (A)
                 (A) (A) (A) (A) (A) (A) (A) (A) (A) (A) (A) (A)
                 (A) (A) (A) (A) (A) (A) (A) (A) (A) (A) (A) (A)
                 (A) (A) (A) (A) (A) (A) (A) (A) (A) (A) (A) (A)
                 (A) (A) (A) (A) (A) (A) (A) (A) (A) (A) (A) (A)
                 (A) (A) (A) (A) (A) (A) (A) (A) (A) (A) (A) (A)
                 (A) (A) (A) (A) (A) (A) (A) (A) (A) (A) (A) (A)
                 (A) (A) (A) (A) (A) (A) (A) (A) (A) (A) (A) (A)
                 (A) (A) (A) (A) (A) (A) (A) (A) (A) (A) (A) (A)
                 (A) (A) (A) (A) (A) (A) (A) (A) (A) (A) (A) (A)
                 (A) (A) (A) (A) (A) (A) (A) (A) (A) (A) (A) (A)
                 (A) (A) (A) (A) (A) (A) (A) (A) (A) (A) (A) (A)
                 (A) (A) (A) (A) (A) (A) (A) (A) (A) (A) (A) (A)
                 (A) (A) (A) (A) (A) (A) (A) (A) (A) (A) (A) (A)
                 (A) (A) (A) (A) (A) (A) (A) (A) (A) (A) (A) (A)
                 (A) (A) (A) (A) (A) (A) (A) (A) (A) (A) (A) (A)
                 (A) (A) (A) (A) (A) (A) (A) (A) (A) (A) (A) (A)
                 (A) (A) (A) (A) (A) (A) (A) (A) (A) (A) (A) (A)
                 (A) (A)
 The electronic state is 1-A.
 Alpha  occ. eigenvalues --  -19.19735 -19.19630 -14.58582 -14.54273 -14.51839
 Alpha  occ. eigenvalues --  -10.29393 -10.27292 -10.25554 -10.23350 -10.22461
 Alpha  occ. eigenvalues --  -10.19025  -1.24712  -1.20631  -1.07429  -0.92162
 Alpha  occ. eigenvalues --   -0.84342  -0.80179  -0.73495  -0.70131  -0.63217
 Alpha  occ. eigenvalues --   -0.59292  -0.56419  -0.55252  -0.55202  -0.54921
 Alpha  occ. eigenvalues --   -0.53017  -0.51827  -0.50376  -0.47653  -0.45833
 Alpha  occ. eigenvalues --   -0.41336  -0.39355  -0.33253  -0.33024  -0.31285
 Alpha  occ. eigenvalues --   -0.30703  -0.29017  -0.23294
 Alpha virt. eigenvalues --   -0.12117  -0.11914  -0.11019  -0.04069  -0.02227
 Alpha virt. eigenvalues --   -0.00557   0.00171   0.00876   0.02185   0.03198
 Alpha virt. eigenvalues --    0.03408   0.04063   0.05253   0.06350   0.06422
 Alpha virt. eigenvalues --    0.07604   0.07882   0.08613   0.08910   0.09664
 Alpha virt. eigenvalues --    0.10489   0.10797   0.10841   0.11489   0.11597
 Alpha virt. eigenvalues --    0.11742   0.12396   0.13288   0.13764   0.14604
 Alpha virt. eigenvalues --    0.15588   0.16813   0.16868   0.17265   0.17861
 Alpha virt. eigenvalues --    0.18616   0.19435   0.19600   0.20270   0.20851
 Alpha virt. eigenvalues --    0.22123   0.22326   0.23108   0.23302   0.23821
 Alpha virt. eigenvalues --    0.23943   0.25152   0.25896   0.26130   0.26433
 Alpha virt. eigenvalues --    0.26795   0.27218   0.28107   0.29117   0.29165
 Alpha virt. eigenvalues --    0.30033   0.30745   0.31188   0.32062   0.32415
 Alpha virt. eigenvalues --    0.33324   0.33729   0.35160   0.37326   0.38148
 Alpha virt. eigenvalues --    0.38837   0.40945   0.41286   0.41800   0.43011
 Alpha virt. eigenvalues --    0.43459   0.43615   0.45015   0.46317   0.47192
 Alpha virt. eigenvalues --    0.47209   0.48841   0.50367   0.50881   0.52441
 Alpha virt. eigenvalues --    0.53483   0.53484   0.54763   0.54801   0.55350
 Alpha virt. eigenvalues --    0.56302   0.57949   0.58486   0.59671   0.59934
 Alpha virt. eigenvalues --    0.61636   0.62272   0.63170   0.64197   0.65073
 Alpha virt. eigenvalues --    0.66730   0.68624   0.68841   0.69199   0.69566
 Alpha virt. eigenvalues --    0.70436   0.70477   0.71806   0.72349   0.73341
 Alpha virt. eigenvalues --    0.73843   0.73905   0.75390   0.75855   0.76537
 Alpha virt. eigenvalues --    0.77477   0.79426   0.79956   0.82443   0.83537
 Alpha virt. eigenvalues --    0.83630   0.85823   0.86501   0.86715   0.87838
 Alpha virt. eigenvalues --    0.88547   0.90829   0.94808   0.94939   0.96805
 Alpha virt. eigenvalues --    0.98480   1.01165   1.04408   1.04729   1.05269
 Alpha virt. eigenvalues --    1.05997   1.06343   1.07526   1.08059   1.11669
 Alpha virt. eigenvalues --    1.11892   1.14400   1.16165   1.18365   1.18466
 Alpha virt. eigenvalues --    1.20276   1.23080   1.23405   1.23425   1.28228
 Alpha virt. eigenvalues --    1.28497   1.30711   1.31474   1.32328   1.32986
 Alpha virt. eigenvalues --    1.33823   1.35921   1.37068   1.38419   1.39101
 Alpha virt. eigenvalues --    1.41689   1.42256   1.42531   1.44299   1.44345
 Alpha virt. eigenvalues --    1.46301   1.48876   1.50106   1.50985   1.52826
 Alpha virt. eigenvalues --    1.54167   1.56917   1.59125   1.60345   1.62359
 Alpha virt. eigenvalues --    1.63795   1.67102   1.69258   1.70100   1.70899
 Alpha virt. eigenvalues --    1.73646   1.74183   1.75783   1.77710   1.79994
 Alpha virt. eigenvalues --    1.82851   1.85141   1.87709   1.87859   1.92225
 Alpha virt. eigenvalues --    1.92238   1.92970   1.97799   1.98049   1.99292
 Alpha virt. eigenvalues --    2.01737   2.02890   2.04214   2.04841   2.07862
 Alpha virt. eigenvalues --    2.09564   2.12641   2.16489   2.18044   2.18593
 Alpha virt. eigenvalues --    2.20672   2.24229   2.25800   2.29098   2.29496
 Alpha virt. eigenvalues --    2.32713   2.34355   2.34478   2.35146   2.41851
 Alpha virt. eigenvalues --    2.45302   2.47989   2.49438   2.58912   2.59768
 Alpha virt. eigenvalues --    2.63631   2.73091   2.75617   2.80542   2.81645
 Alpha virt. eigenvalues --    2.81805   2.88329   2.95652   3.01510   3.07500
 Alpha virt. eigenvalues --    3.10666   3.17694   3.27740   3.27939   3.28442
 Alpha virt. eigenvalues --    3.31657   3.35255   3.38233   3.39317   3.44993
 Alpha virt. eigenvalues --    3.52587   3.59355   3.59611   3.74798   3.78390
 Alpha virt. eigenvalues --    3.81322   4.13646
          Condensed to atoms (all electrons):
              1          2          3          4          5          6
     1  C    9.383531   0.081143   0.129830  -1.542145   0.448329  -2.680361
     2  C    0.081143   9.938448  -0.388084  -0.980411  -1.030799   0.174348
     3  C    0.129830  -0.388084  10.419756  -3.036307  -1.138317  -1.190891
     4  C   -1.542145  -0.980411  -3.036307  13.778348  -1.609555  -0.259182
     5  C    0.448329  -1.030799  -1.138317  -1.609555  10.951446  -2.897695
     6  C   -2.680361   0.174348  -1.190891  -0.259182  -2.897695  12.901436
     7  H   -1.043496  -0.238897  -0.045160   0.128070  -0.253250   0.870620
     8  H    0.033095  -0.023568   0.879567  -1.458653   0.090616  -0.112109
     9  N    0.045396  -0.222228  -0.013293   0.203860   0.030526  -0.107479
    10  N    0.020132   0.103141  -0.233228  -0.251131   0.026854  -0.035785
    11  H    0.813147  -0.080617  -0.066399  -0.105811   0.684057  -1.946455
    12  N   -0.117174   0.006014  -0.186270  -0.054635  -0.350217   0.269613
    13  O   -0.079490   0.001026   0.011211  -0.020667   0.141051   0.022636
    14  O   -0.046694   0.010713   0.011066   0.098581   0.050419  -0.059273
              7          8          9         10         11         12
     1  C   -1.043496   0.033095   0.045396   0.020132   0.813147  -0.117174
     2  C   -0.238897  -0.023568  -0.222228   0.103141  -0.080617   0.006014
     3  C   -0.045160   0.879567  -0.013293  -0.233228  -0.066399  -0.186270
     4  C    0.128070  -1.458653   0.203860  -0.251131  -0.105811  -0.054635
     5  C   -0.253250   0.090616   0.030526   0.026854   0.684057  -0.350217
     6  C    0.870620  -0.112109  -0.107479  -0.035785  -1.946455   0.269613
     7  H    2.453989   0.005525  -0.013776   0.003745  -0.231898   0.013981
     8  H    0.005525   2.578996  -0.134125  -0.023134  -0.005699  -0.038211
     9  N   -0.013776  -0.134125   8.035054  -1.323930   0.010512  -0.014782
    10  N    0.003745  -0.023134  -1.323930   9.393856   0.000418  -0.000521
    11  H   -0.231898  -0.005699   0.010512   0.000418   2.900688  -0.131783
    12  N    0.013981  -0.038211  -0.014782  -0.000521  -0.131783   7.830254
    13  O   -0.001006  -0.009725   0.000285  -0.000040  -0.022369  -0.481345
    14  O   -0.000418  -0.021318   0.004621  -0.000615  -0.009624  -0.435304
             13         14
     1  C   -0.079490  -0.046694
     2  C    0.001026   0.010713
     3  C    0.011211   0.011066
     4  C   -0.020667   0.098581
     5  C    0.141051   0.050419
     6  C    0.022636  -0.059273
     7  H   -0.001006  -0.000418
     8  H   -0.009725  -0.021318
     9  N    0.000285   0.004621
    10  N   -0.000040  -0.000615
    11  H   -0.022369  -0.009624
    12  N   -0.481345  -0.435304
    13  O    9.175582  -0.054826
    14  O   -0.054826   9.130675
 Mulliken atomic charges:
              1
     1  C    0.554758
     2  C   -1.350229
     3  C    0.846520
     4  C    1.109640
     5  C    0.856536
     6  C    1.050577
     7  H   -0.648028
     8  H   -0.761255
     9  N    0.499359
    10  N   -0.679763
    11  H   -0.808168
    12  N    0.690380
    13  O   -0.682322
    14  O   -0.678003
 Sum of Mulliken atomic charges =   0.00000
 Mulliken charges with hydrogens summed into heavy atoms:
              1
     1  C   -0.093270
     2  C   -1.350229
     3  C    0.846520
     4  C    0.348385
     5  C    0.856536
     6  C    0.242409
     9  N    0.499359
    10  N   -0.679763
    12  N    0.690380
    13  O   -0.682322
    14  O   -0.678003
 Sum of Mulliken charges with hydrogens summed into heavy atoms =   0.00000
 APT atomic charges:
              1
     1  C    0.360352
     2  C   -0.019453
     3  C   -0.447804
     4  C    1.012407
     5  C    0.226574
     6  C    0.220158
     7  H   -0.073366
     8  H   -0.214136
     9  N   -1.581609
    10  N    1.125915
    11  H   -0.194653
    12  N    0.668105
    13  O   -0.522716
    14  O   -0.559773
 Sum of APT charges=   0.00000
 APT Atomic charges with hydrogens summed into heavy atoms:
              1
     1  C    0.286986
     2  C   -0.019453
     3  C   -0.447804
     4  C    0.798271
     5  C    0.226574
     6  C    0.025505
     7  H    0.000000
     8  H    0.000000
     9  N   -1.581609
    10  N    1.125915
    11  H    0.000000
    12  N    0.668105
    13  O   -0.522716
    14  O   -0.559773
 Sum of APT charges=   0.00000
 Electronic spatial extent (au):  <R**2>=           1813.9831
 Charge=              0.0000 electrons
 Dipole moment (field-independent basis, Debye):
    X=              3.4146    Y=             -1.0707    Z=              0.0041  Tot=              3.5786
 Quadrupole moment (field-independent basis, Debye-Ang):
   XX=            -71.7414   YY=            -62.0661   ZZ=            -61.7093
   XY=            -12.4874   XZ=             -0.0086   YZ=             -0.0033
 Traceless Quadrupole moment (field-independent basis, Debye-Ang):
   XX=             -6.5691   YY=              3.1062   ZZ=              3.4630
   XY=            -12.4874   XZ=             -0.0086   YZ=             -0.0033
 Octapole moment (field-independent basis, Debye-Ang**2):
  XXX=             29.0481  YYY=             -5.0918  ZZZ=             -0.0049  XYY=             -5.1536
  XXY=            -14.6171  XXZ=              0.0309  XZZ=             -6.7912  YZZ=             -8.5268
  YYZ=              0.0007  XYZ=              0.0106
 Hexadecapole moment (field-independent basis, Debye-Ang**3):
 XXXX=          -1803.5330 YYYY=           -587.7826 ZZZZ=            -64.4229 XXXY=            -76.3349
 XXXZ=             -0.0494 YYYX=            -53.2799 YYYZ=             -0.0027 ZZZX=              0.0099
 ZZZY=              0.0065 XXYY=           -418.1133 XXZZ=           -278.4713 YYZZ=           -118.8542
 XXYZ=             -0.0198 YYXZ=              0.0026 ZZXY=             -4.6639
 N-N= 5.304365617484D+02 E-N=-2.331884667437D+03  KE= 5.416867787305D+02
  Exact polarizability:   0.000   0.000   0.000   0.000   0.000   0.000
 Approx polarizability: 257.936 -38.037 250.108  -0.002  -0.014  88.721
 Calling FoFJK, ICntrl=    100147 FMM=F ISym2X=0 I1Cent= 0 IOpClX= 0 NMat=1 NMatS=1 NMatT=0.
 ***** Axes restored to original set *****
 -------------------------------------------------------------------
 Center     Atomic                   Forces (Hartrees/Bohr)
 Number     Number              X              Y              Z
 -------------------------------------------------------------------
      1        6           0.000034220   -0.000312583   -0.000246144
      2        6           0.000067365    0.000779807    0.000710405
      3        6           0.001408797   -0.001323810   -0.000387293
      4        6           0.000401848   -0.000079709    0.000113939
      5        6          -0.000018725    0.000009301   -0.000225350
      6        6           0.000056510    0.000146864    0.000128401
      7        1          -0.000019665    0.000013101    0.000004713
      8        1          -0.000014853    0.000002318   -0.000008631
      9        7          -0.001791513    0.001363173    0.000239030
     10        7          -0.000022835   -0.000498344   -0.000447772
     11        1          -0.000003173   -0.000006704   -0.000009260
     12        7          -0.000241638   -0.000365977    0.000457244
     13        8           0.000055955    0.000128491   -0.000178620
     14        8           0.000087707    0.000144073   -0.000150662
 -------------------------------------------------------------------
 Cartesian Forces:  Max     0.001791513 RMS     0.000523646

 GradGradGradGradGradGradGradGradGradGradGradGradGradGradGradGradGradGrad
 Berny optimization.
 Internal  Forces:  Max     0.001933155 RMS     0.000338876
 Search for a saddle point.
 Step number   1 out of a maximum of   70
 All quantities printed in internal units (Hartrees-Bohrs-Radians)
 Swaping is turned off.
 Second derivative matrix not updated -- analytic derivatives used.
 ITU=  0
     Eigenvalues ---   -0.06648   0.00120   0.00367   0.01297   0.01638
     Eigenvalues ---    0.01808   0.02015   0.02456   0.02804   0.03282
     Eigenvalues ---    0.03674   0.06563   0.09859   0.10938   0.11636
     Eigenvalues ---    0.12110   0.15312   0.16738   0.18260   0.19994
     Eigenvalues ---    0.22314   0.24121   0.28644   0.33306   0.34757
     Eigenvalues ---    0.36188   0.36987   0.37862   0.40988   0.42697
     Eigenvalues ---    0.45994   0.49425   0.52383   0.58358   0.76849
     Eigenvalues ---    1.43639
 Eigenvectors required to have negative eigenvalues:
                          R6        A17       R4        A7        R5
   1                    0.88510  -0.34450  -0.21597  -0.11983  -0.08188
                          A1        A5        A8        A4        A6
   1                   -0.07619   0.07368  -0.06530   0.06252   0.04616
 RFO step:  Lambda0=1.316227224D-05 Lambda=-6.35993511D-05.
 Linear search not attempted -- option 19 set.
 Iteration  1 RMS(Cart)=  0.00704772 RMS(Int)=  0.00011220
 Iteration  2 RMS(Cart)=  0.00011045 RMS(Int)=  0.00000118
 Iteration  3 RMS(Cart)=  0.00000000 RMS(Int)=  0.00000118
 Variable       Old X    -DE/DX   Delta X   Delta X   Delta X     New X
                                 (Linear)    (Quad)   (Total)
    R1        2.69172  -0.00009   0.00000  -0.00171  -0.00171   2.69001
    R2        2.63958   0.00007   0.00000   0.00061   0.00061   2.64019
    R3        2.06538   0.00000   0.00000  -0.00017  -0.00017   2.06521
    R4        2.54197  -0.00080   0.00000  -0.00588  -0.00588   2.53610
    R5        2.62825  -0.00017   0.00000  -0.00088  -0.00088   2.62737
    R6        3.02689  -0.00193   0.00000   0.00133   0.00133   3.02822
    R7        2.62915   0.00014   0.00000   0.00085   0.00084   2.63000
    R8        2.05556  -0.00001   0.00000   0.00002   0.00002   2.05558
    R9        2.66542  -0.00005   0.00000  -0.00025  -0.00025   2.66517
   R10        2.77960   0.00003   0.00000   0.00034   0.00034   2.77994
   R11        2.05773   0.00000   0.00000   0.00002   0.00002   2.05775
   R12        2.09954   0.00014   0.00000   0.00090   0.00090   2.10044
   R13        2.32005   0.00003   0.00000   0.00006   0.00006   2.32011
   R14        2.32487   0.00001   0.00000  -0.00004  -0.00004   2.32483
    A1        2.13325  -0.00026   0.00000  -0.00431  -0.00431   2.12895
    A2        2.09207   0.00015   0.00000   0.00282   0.00282   2.09489
    A3        2.05786   0.00010   0.00000   0.00149   0.00149   2.05935
    A4        1.92650   0.00029   0.00000   0.00609   0.00609   1.93259
    A5        2.34648   0.00012   0.00000  -0.00224  -0.00224   2.34423
    A6        1.96108   0.00014   0.00000   0.00275   0.00275   1.96383
    A7        1.97563  -0.00026   0.00000  -0.00051  -0.00051   1.97512
    A8        1.94529  -0.00013   0.00000  -0.00053  -0.00053   1.94476
    A9        2.20372   0.00008   0.00000   0.00016   0.00016   2.20388
   A10        2.13418   0.00005   0.00000   0.00037   0.00037   2.13455
   A11        2.12081   0.00001   0.00000   0.00079   0.00079   2.12160
   A12        2.06766   0.00004   0.00000   0.00000   0.00001   2.06767
   A13        2.09471  -0.00005   0.00000  -0.00079  -0.00079   2.09392
   A14        2.09404  -0.00003   0.00000   0.00020   0.00020   2.09424
   A15        2.12137   0.00000   0.00000  -0.00022  -0.00022   2.12115
   A16        2.06777   0.00003   0.00000   0.00002   0.00002   2.06779
   A17        2.85347  -0.00138   0.00000  -0.03051  -0.03051   2.82296
   A18        2.05480  -0.00003   0.00000   0.00011   0.00011   2.05491
   A19        2.05340   0.00002   0.00000  -0.00006  -0.00007   2.05334
   A20        2.17497   0.00001   0.00000  -0.00003  -0.00004   2.17493
    D1        0.00004   0.00000   0.00000  -0.00004  -0.00004   0.00000
    D2       -3.14158   0.00000   0.00000  -0.00001  -0.00001   3.14159
    D3        0.00000   0.00000   0.00000   0.00001   0.00001   0.00000
    D4        3.14157   0.00000   0.00000   0.00002   0.00002  -3.14159
    D5       -3.14157   0.00000   0.00000  -0.00002  -0.00002  -3.14159
    D6        0.00001   0.00000   0.00000  -0.00001  -0.00001   0.00000
    D7       -0.00004   0.00000   0.00000   0.00004   0.00004   0.00000
    D8        3.14155   0.00000   0.00000   0.00005   0.00005  -3.14159
    D9        0.00000   0.00001   0.00000   0.00000   0.00000   0.00000
   D10       -3.14157   0.00000   0.00000  -0.00002  -0.00002   3.14159
   D11       -3.14159   0.00001   0.00000  -0.00001  -0.00001   3.14159
   D12        0.00003   0.00000   0.00000  -0.00004  -0.00004   0.00000
   D13       -0.00042   0.00000   0.00000   0.00044   0.00044   0.00002
   D14        3.14117   0.00000   0.00000   0.00045   0.00045  -3.14157
   D15        0.00004  -0.00001   0.00000  -0.00004  -0.00004   0.00000
   D16       -3.14154  -0.00001   0.00000  -0.00005  -0.00005   3.14159
   D17       -3.14157   0.00000   0.00000  -0.00002  -0.00002  -3.14159
   D18        0.00003   0.00000   0.00000  -0.00003  -0.00003   0.00000
   D19       -0.00004   0.00001   0.00000   0.00004   0.00004   0.00000
   D20        3.14157   0.00000   0.00000   0.00002   0.00002  -3.14159
   D21        3.14154   0.00001   0.00000   0.00005   0.00005  -3.14159
   D22       -0.00003   0.00000   0.00000   0.00003   0.00003   0.00000
   D23       -3.13970  -0.00023   0.00000  -0.00189  -0.00189  -3.14159
   D24       -0.00208   0.00023   0.00000   0.00209   0.00209   0.00000
   D25        0.00190  -0.00023   0.00000  -0.00190  -0.00190   0.00000
   D26        3.13952   0.00023   0.00000   0.00208   0.00208  -3.14159
         Item               Value     Threshold  Converged?
 Maximum Force            0.001933     0.000450     NO 
 RMS     Force            0.000339     0.000300     NO 
 Maximum Displacement     0.032698     0.001800     NO 
 RMS     Displacement     0.007055     0.001200     NO 
 Predicted change in Energy=-2.524498D-05
 GradGradGradGradGradGradGradGradGradGradGradGradGradGradGradGradGradGrad

                          Input orientation:                          
 ---------------------------------------------------------------------
 Center     Atomic      Atomic             Coordinates (Angstroms)
 Number     Number       Type             X           Y           Z
 ---------------------------------------------------------------------
      1          6           0       -1.879934    0.124908   -1.091938
      2          6           0       -0.559023   -0.214372   -0.684002
      3          6           0       -0.126812    0.623606    0.271022
      4          6           0       -0.679770    1.718686    0.925310
      5          6           0       -1.968177    1.984840    0.471336
      6          6           0       -2.574656    1.199364   -0.530807
      7          1           0       -2.380951   -0.461780   -1.865969
      8          1           0       -0.200464    2.316473    1.697419
      9          7           0        1.359110    0.279785    0.762674
     10          7           0        2.350372   -0.213027    0.862577
     11          1           0       -3.585011    1.452457   -0.848391
     12          7           0       -2.700044    3.116073    1.061891
     13          8           0       -3.835548    3.338769    0.651524
     14          8           0       -2.130403    3.772407    1.932662
 ---------------------------------------------------------------------
                    Distance matrix (angstroms):
                    1          2          3          4          5
     1  C    0.000000
     2  C    1.423492   0.000000
     3  C    2.275916   1.342044   0.000000
     4  C    2.837219   2.518169   1.390344   0.000000
     5  C    2.431246   2.856056   2.298632   1.391734   0.000000
     6  C    1.397127   2.466758   2.639388   2.445519   1.410347
     7  H    1.092862   2.185791   3.290279   3.929337   3.408714
     8  H    3.924804   3.493552   2.214911   1.087767   2.176711
     9  N    3.735636   2.452814   1.602467   2.500784   3.750058
    10  N    4.672239   3.294918   2.680733   3.594052   4.861435
    11  H    2.174624   3.458605   3.728166   3.414282   2.153895
    12  N    3.776060   4.327121   3.668704   2.460254   1.471079
    13  O    4.146443   5.014385   4.612116   3.557887   2.313583
    14  O    4.745017   5.021013   4.085385   2.708664   2.314559
                    6          7          8          9         10
     6  C    0.000000
     7  H    2.139996   0.000000
     8  H    3.442341   5.017066   0.000000
     9  N    4.241844   4.631171   2.730223   0.000000
    10  N    5.309639   5.467382   3.688101   1.111505   0.000000
    11  H    1.088914   2.479825   4.322365   5.330575   6.397658
    12  N    2.495232   4.634137   2.700214   4.960927   6.052217
    13  O    2.750420   4.785165   3.918268   6.029446   7.136204
    14  O    3.589789   5.693919   2.428940   5.073853   6.091478
                   11         12         13         14
    11  H    0.000000
    12  N    2.683275   0.000000
    13  O    2.422950   1.227748   0.000000
    14  O    3.902859   1.230246   2.176436   0.000000
 Stoichiometry    C6H3N3O2
 Framework group  C1[X(C6H3N3O2)]
 Deg. of freedom    36
 Full point group                 C1      NOp   1
 Largest Abelian subgroup         C1      NOp   1
 Largest concise Abelian subgroup C1      NOp   1
                         Standard orientation:                         
 ---------------------------------------------------------------------
 Center     Atomic      Atomic             Coordinates (Angstroms)
 Number     Number       Type             X           Y           Z
 ---------------------------------------------------------------------
      1          6           0        0.468110    2.127893    0.000001
      2          6           0        1.681196    1.383077   -0.000002
      3          6           0        1.429264    0.064891   -0.000003
      4          6           0        0.269808   -0.702387   -0.000001
      5          6           0       -0.869137    0.097442    0.000001
      6          6           0       -0.782541    1.505129    0.000003
      7          1           0        0.497119    3.220369    0.000003
      8          1           0        0.217084   -1.788876   -0.000004
      9          7           0        2.768018   -0.815812   -0.000004
     10          7           0        3.841233   -1.105040    0.000004
     11          1           0       -1.706032    2.082101    0.000005
     12          7           0       -2.186198   -0.557862    0.000001
     13          8           0       -3.181861    0.160483   -0.000003
     14          8           0       -2.211856   -1.787841    0.000002
 ---------------------------------------------------------------------
 Rotational constants (GHZ):      2.3971160      0.7192952      0.5532755
 Standard basis: Aug-CC-pVDZ (5D, 7F)
 There are   280 symmetry adapted basis functions of A   symmetry.
 Integral buffers will be    131072 words long.
 Raffenetti 2 integral format.
 Two-electron integral symmetry is turned on.
   280 basis functions,   506 primitive gaussians,   302 cartesian basis functions
    38 alpha electrons       38 beta electrons
       nuclear repulsion energy       530.5255085898 Hartrees.
 NAtoms=   14 NActive=   14 NUniq=   14 SFac= 1.00D+00 NAtFMM=   50 NAOKFM=F Big=F
 One-electron integrals computed using PRISM.
 NBasis=   280 RedAO= T  NBF=   280
 NBsUse=   280 1.00D-06 NBFU=   280
 Initial guess read from the read-write file.
 B after Tr=     0.000000    0.000000    0.000000
         Rot=    1.000000    0.000000    0.000000    0.000000 Ang=   0.00 deg.
 Initial guess orbital symmetries:
       Occupied  (A) (A) (A) (A) (A) (A) (A) (A) (A) (A) (A) (A)
                 (A) (A) (A) (A) (A) (A) (A) (A) (A) (A) (A) (A)
                 (A) (A) (A) (A) (A) (A) (A) (A) (A) (A) (A) (A)
                 (A) (A)
       Virtual   (A) (A) (A) (A) (A) (A) (A) (A) (A) (A) (A) (A)
                 (A) (A) (A) (A) (A) (A) (A) (A) (A) (A) (A) (A)
                 (A) (A) (A) (A) (A) (A) (A) (A) (A) (A) (A) (A)
                 (A) (A) (A) (A) (A) (A) (A) (A) (A) (A) (A) (A)
                 (A) (A) (A) (A) (A) (A) (A) (A) (A) (A) (A) (A)
                 (A) (A) (A) (A) (A) (A) (A) (A) (A) (A) (A) (A)
                 (A) (A) (A) (A) (A) (A) (A) (A) (A) (A) (A) (A)
                 (A) (A) (A) (A) (A) (A) (A) (A) (A) (A) (A) (A)
                 (A) (A) (A) (A) (A) (A) (A) (A) (A) (A) (A) (A)
                 (A) (A) (A) (A) (A) (A) (A) (A) (A) (A) (A) (A)
                 (A) (A) (A) (A) (A) (A) (A) (A) (A) (A) (A) (A)
                 (A) (A) (A) (A) (A) (A) (A) (A) (A) (A) (A) (A)
                 (A) (A) (A) (A) (A) (A) (A) (A) (A) (A) (A) (A)
                 (A) (A) (A) (A) (A) (A) (A) (A) (A) (A) (A) (A)
                 (A) (A) (A) (A) (A) (A) (A) (A) (A) (A) (A) (A)
                 (A) (A) (A) (A) (A) (A) (A) (A) (A) (A) (A) (A)
                 (A) (A) (A) (A) (A) (A) (A) (A) (A) (A) (A) (A)
                 (A) (A) (A) (A) (A) (A) (A) (A) (A) (A) (A) (A)
                 (A) (A) (A) (A) (A) (A) (A) (A) (A) (A) (A) (A)
                 (A) (A) (A) (A) (A) (A) (A) (A) (A) (A) (A) (A)
                 (A) (A)
 Harris functional with IExCor=  402 diagonalized for initial guess.
 ExpMin= 2.97D-02 ExpMax= 1.17D+04 ExpMxC= 4.01D+02 IAcc=3 IRadAn=         0 AccDes= 0.00D+00
 HarFok:  IExCor=  402 AccDes= 0.00D+00 IRadAn=         0 IDoV= 1
 ScaDFX=  1.000000  1.000000  1.000000  1.000000
 FoFCou: FMM=F IPFlag=           0 FMFlag=      100000 FMFlg1=           0
         NFxFlg=           0 DoJE=T BraDBF=F KetDBF=T FulRan=T
         Omega=  0.000000  0.000000  1.000000  0.000000  0.000000 ICntrl=     500 IOpCl=  0
         NMat0=    1 NMatS0=    1 NMatT0=    0 NMatD0=    1 NMtDS0=    0 NMtDT0=    0
         I1Cent=           4 NGrid=           0.
 Petite list used in FoFCou.
 Requested convergence on RMS density matrix=1.00D-08 within 128 cycles.
 Requested convergence on MAX density matrix=1.00D-06.
 Requested convergence on             energy=1.00D-06.
 No special actions if energy rises.
 SCF Done:  E(RB3LYP) =  -544.974270212     A.U. after   13 cycles
             Convg  =    0.9168D-08             -V/T =  2.0061
 Calling FoFJK, ICntrl=      2127 FMM=F ISym2X=0 I1Cent= 0 IOpClX= 0 NMat=1 NMatS=1 NMatT=0.
 ***** Axes restored to original set *****
 -------------------------------------------------------------------
 Center     Atomic                   Forces (Hartrees/Bohr)
 Number     Number              X              Y              Z
 -------------------------------------------------------------------
      1        6          -0.000002637   -0.000011415   -0.000011429
      2        6          -0.000050144    0.000021247   -0.000008155
      3        6           0.000009254   -0.000015091   -0.000008278
      4        6           0.000004736   -0.000000184    0.000002692
      5        6          -0.000004085   -0.000001583   -0.000003580
      6        6           0.000001355    0.000000960    0.000001510
      7        1          -0.000000669    0.000000495    0.000000113
      8        1          -0.000000357   -0.000000056   -0.000000382
      9        7           0.000005338    0.000014057    0.000014787
     10        7           0.000036911   -0.000007028    0.000013671
     11        1           0.000000561   -0.000001033   -0.000000554
     12        7           0.000000445   -0.000000031    0.000000631
     13        8          -0.000000544   -0.000000331   -0.000000774
     14        8          -0.000000166   -0.000000007   -0.000000252
 -------------------------------------------------------------------
 Cartesian Forces:  Max     0.000050144 RMS     0.000011748

 GradGradGradGradGradGradGradGradGradGradGradGradGradGradGradGradGradGrad
 Berny optimization.
 Internal  Forces:  Max     0.000062063 RMS     0.000014015
 Search for a saddle point.
 Step number   2 out of a maximum of   70
 All quantities printed in internal units (Hartrees-Bohrs-Radians)
 Swaping is turned off.
 Update second derivatives using D2CorX and points    1    2
 ITU=  0  0
     Eigenvalues ---   -0.06737   0.00120   0.00367   0.01297   0.01638
     Eigenvalues ---    0.01808   0.02015   0.02456   0.02804   0.03282
     Eigenvalues ---    0.03674   0.06704   0.09859   0.10938   0.11636
     Eigenvalues ---    0.12110   0.15317   0.16739   0.18257   0.20000
     Eigenvalues ---    0.22313   0.24120   0.28644   0.33307   0.34757
     Eigenvalues ---    0.36188   0.36987   0.37864   0.40991   0.42698
     Eigenvalues ---    0.45994   0.49429   0.52400   0.58358   0.76849
     Eigenvalues ---    1.43645
 Eigenvectors required to have negative eigenvalues:
                          R6        A17       R4        A7        R5
   1                    0.88335  -0.34810  -0.21603  -0.12066  -0.08158
                          A1        A5        A4        A8        A6
   1                   -0.07717   0.07129   0.06509  -0.06471   0.04936
 RFO step:  Lambda0=1.582453312D-08 Lambda=-5.61048787D-08.
 Linear search not attempted -- option 19 set.
 Iteration  1 RMS(Cart)=  0.00026339 RMS(Int)=  0.00000009
 Iteration  2 RMS(Cart)=  0.00000009 RMS(Int)=  0.00000000
 Variable       Old X    -DE/DX   Delta X   Delta X   Delta X     New X
                                 (Linear)    (Quad)   (Total)
    R1        2.69001   0.00000   0.00000  -0.00003  -0.00003   2.68998
    R2        2.64019   0.00000   0.00000  -0.00001  -0.00001   2.64018
    R3        2.06521   0.00000   0.00000   0.00000   0.00000   2.06521
    R4        2.53610   0.00002   0.00000   0.00012   0.00012   2.53621
    R5        2.62737   0.00000   0.00000   0.00006   0.00006   2.62743
    R6        3.02822   0.00005   0.00000  -0.00028  -0.00028   3.02795
    R7        2.63000   0.00001   0.00000  -0.00001  -0.00001   2.62998
    R8        2.05558   0.00000   0.00000   0.00000   0.00000   2.05558
    R9        2.66517   0.00000   0.00000   0.00000   0.00000   2.66517
   R10        2.77994   0.00000   0.00000   0.00000   0.00000   2.77994
   R11        2.05775   0.00000   0.00000   0.00000   0.00000   2.05775
   R12        2.10044   0.00004   0.00000   0.00002   0.00002   2.10046
   R13        2.32011   0.00000   0.00000   0.00000   0.00000   2.32011
   R14        2.32483   0.00000   0.00000   0.00000   0.00000   2.32483
    A1        2.12895  -0.00001   0.00000   0.00000   0.00000   2.12895
    A2        2.09489   0.00001   0.00000   0.00000   0.00000   2.09489
    A3        2.05935   0.00000   0.00000   0.00000   0.00000   2.05935
    A4        1.93259   0.00003   0.00000   0.00008   0.00008   1.93267
    A5        2.34423  -0.00003   0.00000  -0.00015  -0.00015   2.34408
    A6        1.96383   0.00006   0.00000   0.00030   0.00030   1.96413
    A7        1.97512  -0.00003   0.00000  -0.00015  -0.00015   1.97498
    A8        1.94476   0.00001   0.00000   0.00007   0.00007   1.94483
    A9        2.20388   0.00000   0.00000  -0.00003  -0.00003   2.20385
   A10        2.13455   0.00000   0.00000  -0.00004  -0.00004   2.13451
   A11        2.12160   0.00001   0.00000   0.00001   0.00001   2.12161
   A12        2.06767   0.00000   0.00000  -0.00001  -0.00001   2.06766
   A13        2.09392   0.00000   0.00000  -0.00001  -0.00001   2.09392
   A14        2.09424   0.00000   0.00000   0.00000   0.00000   2.09424
   A15        2.12115   0.00000   0.00000   0.00001   0.00001   2.12115
   A16        2.06779   0.00000   0.00000   0.00000   0.00000   2.06779
   A17        2.82296   0.00003   0.00000   0.00066   0.00066   2.82362
   A18        2.05491   0.00000   0.00000   0.00000   0.00000   2.05491
   A19        2.05334   0.00000   0.00000   0.00000   0.00000   2.05334
   A20        2.17493   0.00000   0.00000   0.00000   0.00000   2.17493
    D1        0.00000   0.00000   0.00000   0.00000   0.00000   0.00000
    D2        3.14159   0.00000   0.00000   0.00000   0.00000   3.14159
    D3        0.00000   0.00000   0.00000   0.00000   0.00000   0.00000
    D4       -3.14159   0.00000   0.00000   0.00000   0.00000  -3.14159
    D5       -3.14159   0.00000   0.00000   0.00000   0.00000  -3.14159
    D6        0.00000   0.00000   0.00000   0.00000   0.00000   0.00000
    D7        0.00000   0.00000   0.00000   0.00000   0.00000   0.00000
    D8       -3.14159   0.00000   0.00000   0.00000   0.00000  -3.14159
    D9        0.00000   0.00000   0.00000   0.00000   0.00000   0.00000
   D10        3.14159   0.00000   0.00000   0.00000   0.00000   3.14159
   D11        3.14159   0.00000   0.00000   0.00000   0.00000   3.14159
   D12        0.00000   0.00000   0.00000   0.00000   0.00000   0.00000
   D13        0.00002   0.00000   0.00000  -0.00001  -0.00001   0.00001
   D14       -3.14157   0.00000   0.00000  -0.00002  -0.00002  -3.14158
   D15        0.00000   0.00000   0.00000   0.00000   0.00000   0.00000
   D16        3.14159   0.00000   0.00000   0.00000   0.00000  -3.14159
   D17       -3.14159   0.00000   0.00000   0.00000   0.00000   3.14159
   D18        0.00000   0.00000   0.00000   0.00000   0.00000   0.00000
   D19        0.00000   0.00000   0.00000   0.00000   0.00000   0.00000
   D20       -3.14159   0.00000   0.00000   0.00000   0.00000   3.14159
   D21       -3.14159   0.00000   0.00000   0.00000   0.00000   3.14159
   D22        0.00000   0.00000   0.00000   0.00000   0.00000   0.00000
   D23       -3.14159   0.00000   0.00000  -0.00001  -0.00001  -3.14159
   D24        0.00000   0.00000   0.00000   0.00000   0.00000   0.00000
   D25        0.00000   0.00000   0.00000   0.00000   0.00000   0.00000
   D26       -3.14159   0.00000   0.00000   0.00000   0.00000  -3.14159
         Item               Value     Threshold  Converged?
 Maximum Force            0.000062     0.000450     YES
 RMS     Force            0.000014     0.000300     YES
 Maximum Displacement     0.001166     0.001800     YES
 RMS     Displacement     0.000263     0.001200     YES
 Predicted change in Energy=-2.014017D-08
 Optimization completed.
    -- Stationary point found.
                           ----------------------------
                           !   Optimized Parameters   !
                           ! (Angstroms and Degrees)  !
 --------------------------                            --------------------------
 ! Name  Definition              Value          Derivative Info.                !
 --------------------------------------------------------------------------------
 ! R1    R(1,2)                  1.4235         -DE/DX =    0.0                 !
 ! R2    R(1,6)                  1.3971         -DE/DX =    0.0                 !
 ! R3    R(1,7)                  1.0929         -DE/DX =    0.0                 !
 ! R4    R(2,3)                  1.342          -DE/DX =    0.0                 !
 ! R5    R(3,4)                  1.3903         -DE/DX =    0.0                 !
 ! R6    R(3,9)                  1.6025         -DE/DX =    0.0                 !
 ! R7    R(4,5)                  1.3917         -DE/DX =    0.0                 !
 ! R8    R(4,8)                  1.0878         -DE/DX =    0.0                 !
 ! R9    R(5,6)                  1.4103         -DE/DX =    0.0                 !
 ! R10   R(5,12)                 1.4711         -DE/DX =    0.0                 !
 ! R11   R(6,11)                 1.0889         -DE/DX =    0.0                 !
 ! R12   R(9,10)                 1.1115         -DE/DX =    0.0                 !
 ! R13   R(12,13)                1.2277         -DE/DX =    0.0                 !
 ! R14   R(12,14)                1.2302         -DE/DX =    0.0                 !
 ! A1    A(2,1,6)              121.9796         -DE/DX =    0.0                 !
 ! A2    A(2,1,7)              120.0282         -DE/DX =    0.0                 !
 ! A3    A(6,1,7)              117.9922         -DE/DX =    0.0                 !
 ! A4    A(1,2,3)              110.7294         -DE/DX =    0.0                 !
 ! A5    A(2,3,4)              134.3147         -DE/DX =    0.0                 !
 ! A6    A(2,3,9)              112.5192         -DE/DX =    0.0001              !
 ! A7    A(4,3,9)              113.1661         -DE/DX =    0.0                 !
 ! A8    A(3,4,5)              111.4265         -DE/DX =    0.0                 !
 ! A9    A(3,4,8)              126.2731         -DE/DX =    0.0                 !
 ! A10   A(5,4,8)              122.3004         -DE/DX =    0.0                 !
 ! A11   A(4,5,6)              121.5584         -DE/DX =    0.0                 !
 ! A12   A(4,5,12)             118.4687         -DE/DX =    0.0                 !
 ! A13   A(6,5,12)             119.9729         -DE/DX =    0.0                 !
 ! A14   A(1,6,5)              119.9913         -DE/DX =    0.0                 !
 ! A15   A(1,6,11)             121.5329         -DE/DX =    0.0                 !
 ! A16   A(5,6,11)             118.4758         -DE/DX =    0.0                 !
 ! A17   A(3,9,10)             161.7436         -DE/DX =    0.0                 !
 ! A18   A(5,12,13)            117.7379         -DE/DX =    0.0                 !
 ! A19   A(5,12,14)            117.6477         -DE/DX =    0.0                 !
 ! A20   A(13,12,14)           124.6144         -DE/DX =    0.0                 !
 ! D1    D(6,1,2,3)              0.0            -DE/DX =    0.0                 !
 ! D2    D(7,1,2,3)            180.0            -DE/DX =    0.0                 !
 ! D3    D(2,1,6,5)              0.0            -DE/DX =    0.0                 !
 ! D4    D(2,1,6,11)          -180.0            -DE/DX =    0.0                 !
 ! D5    D(7,1,6,5)           -180.0            -DE/DX =    0.0                 !
 ! D6    D(7,1,6,11)             0.0            -DE/DX =    0.0                 !
 ! D7    D(1,2,3,4)              0.0            -DE/DX =    0.0                 !
 ! D8    D(1,2,3,9)           -179.9999         -DE/DX =    0.0                 !
 ! D9    D(2,3,4,5)              0.0            -DE/DX =    0.0                 !
 ! D10   D(2,3,4,8)            179.9998         -DE/DX =    0.0                 !
 ! D11   D(9,3,4,5)            179.9999         -DE/DX =    0.0                 !
 ! D12   D(9,3,4,8)             -0.0003         -DE/DX =    0.0                 !
 ! D13   D(2,3,9,10)             0.0014         -DE/DX =    0.0                 !
 ! D14   D(4,3,9,10)          -179.9985         -DE/DX =    0.0                 !
 ! D15   D(3,4,5,6)              0.0            -DE/DX =    0.0                 !
 ! D16   D(3,4,5,12)          -180.0001         -DE/DX =    0.0                 !
 ! D17   D(8,4,5,6)            180.0001         -DE/DX =    0.0                 !
 ! D18   D(8,4,5,12)             0.0            -DE/DX =    0.0                 !
 ! D19   D(4,5,6,1)              0.0            -DE/DX =    0.0                 !
 ! D20   D(4,5,6,11)           180.0            -DE/DX =    0.0                 !
 ! D21   D(12,5,6,1)           180.0001         -DE/DX =    0.0                 !
 ! D22   D(12,5,6,11)            0.0001         -DE/DX =    0.0                 !
 ! D23   D(4,5,12,13)         -179.9997         -DE/DX =    0.0                 !
 ! D24   D(4,5,12,14)            0.0002         -DE/DX =    0.0                 !
 ! D25   D(6,5,12,13)            0.0003         -DE/DX =    0.0                 !
 ! D26   D(6,5,12,14)         -179.9999         -DE/DX =    0.0                 !
 --------------------------------------------------------------------------------
 GradGradGradGradGradGradGradGradGradGradGradGradGradGradGradGradGradGrad

                          Input orientation:                          
 ---------------------------------------------------------------------
 Center     Atomic      Atomic             Coordinates (Angstroms)
 Number     Number       Type             X           Y           Z
 ---------------------------------------------------------------------
      1          6           0       -1.879934    0.124908   -1.091938
      2          6           0       -0.559023   -0.214372   -0.684002
      3          6           0       -0.126812    0.623606    0.271022
      4          6           0       -0.679770    1.718686    0.925310
      5          6           0       -1.968177    1.984840    0.471336
      6          6           0       -2.574656    1.199364   -0.530807
      7          1           0       -2.380951   -0.461780   -1.865969
      8          1           0       -0.200464    2.316473    1.697419
      9          7           0        1.359110    0.279785    0.762674
     10          7           0        2.350372   -0.213027    0.862577
     11          1           0       -3.585011    1.452457   -0.848391
     12          7           0       -2.700044    3.116073    1.061891
     13          8           0       -3.835548    3.338769    0.651524
     14          8           0       -2.130403    3.772407    1.932662
 ---------------------------------------------------------------------
                    Distance matrix (angstroms):
                    1          2          3          4          5
     1  C    0.000000
     2  C    1.423492   0.000000
     3  C    2.275916   1.342044   0.000000
     4  C    2.837219   2.518169   1.390344   0.000000
     5  C    2.431246   2.856056   2.298632   1.391734   0.000000
     6  C    1.397127   2.466758   2.639388   2.445519   1.410347
     7  H    1.092862   2.185791   3.290279   3.929337   3.408714
     8  H    3.924804   3.493552   2.214911   1.087767   2.176711
     9  N    3.735636   2.452814   1.602467   2.500784   3.750058
    10  N    4.672239   3.294918   2.680733   3.594052   4.861435
    11  H    2.174624   3.458605   3.728166   3.414282   2.153895
    12  N    3.776060   4.327121   3.668704   2.460254   1.471079
    13  O    4.146443   5.014385   4.612116   3.557887   2.313583
    14  O    4.745017   5.021013   4.085385   2.708664   2.314559
                    6          7          8          9         10
     6  C    0.000000
     7  H    2.139996   0.000000
     8  H    3.442341   5.017066   0.000000
     9  N    4.241844   4.631171   2.730223   0.000000
    10  N    5.309639   5.467382   3.688101   1.111505   0.000000
    11  H    1.088914   2.479825   4.322365   5.330575   6.397658
    12  N    2.495232   4.634137   2.700214   4.960927   6.052217
    13  O    2.750420   4.785165   3.918268   6.029446   7.136204
    14  O    3.589789   5.693919   2.428940   5.073853   6.091478
                   11         12         13         14
    11  H    0.000000
    12  N    2.683275   0.000000
    13  O    2.422950   1.227748   0.000000
    14  O    3.902859   1.230246   2.176436   0.000000
 Stoichiometry    C6H3N3O2
 Framework group  C1[X(C6H3N3O2)]
 Deg. of freedom    36
 Full point group                 C1      NOp   1
 Largest Abelian subgroup         C1      NOp   1
 Largest concise Abelian subgroup C1      NOp   1
                         Standard orientation:                         
 ---------------------------------------------------------------------
 Center     Atomic      Atomic             Coordinates (Angstroms)
 Number     Number       Type             X           Y           Z
 ---------------------------------------------------------------------
      1          6           0        0.468110    2.127893    0.000001
      2          6           0        1.681196    1.383077   -0.000002
      3          6           0        1.429264    0.064891   -0.000003
      4          6           0        0.269808   -0.702387   -0.000001
      5          6           0       -0.869137    0.097442    0.000001
      6          6           0       -0.782541    1.505129    0.000003
      7          1           0        0.497119    3.220369    0.000003
      8          1           0        0.217084   -1.788876   -0.000004
      9          7           0        2.768018   -0.815812   -0.000004
     10          7           0        3.841233   -1.105040    0.000004
     11          1           0       -1.706032    2.082101    0.000005
     12          7           0       -2.186198   -0.557862    0.000001
     13          8           0       -3.181861    0.160483   -0.000003
     14          8           0       -2.211856   -1.787841    0.000002
 ---------------------------------------------------------------------
 Rotational constants (GHZ):      2.3971160      0.7192952      0.5532755

 **********************************************************************

            Population analysis using the SCF density.

 **********************************************************************

 Orbital symmetries:
       Occupied  (A) (A) (A) (A) (A) (A) (A) (A) (A) (A) (A) (A)
                 (A) (A) (A) (A) (A) (A) (A) (A) (A) (A) (A) (A)
                 (A) (A) (A) (A) (A) (A) (A) (A) (A) (A) (A) (A)
                 (A) (A)
       Virtual   (A) (A) (A) (A) (A) (A) (A) (A) (A) (A) (A) (A)
                 (A) (A) (A) (A) (A) (A) (A) (A) (A) (A) (A) (A)
                 (A) (A) (A) (A) (A) (A) (A) (A) (A) (A) (A) (A)
                 (A) (A) (A) (A) (A) (A) (A) (A) (A) (A) (A) (A)
                 (A) (A) (A) (A) (A) (A) (A) (A) (A) (A) (A) (A)
                 (A) (A) (A) (A) (A) (A) (A) (A) (A) (A) (A) (A)
                 (A) (A) (A) (A) (A) (A) (A) (A) (A) (A) (A) (A)
                 (A) (A) (A) (A) (A) (A) (A) (A) (A) (A) (A) (A)
                 (A) (A) (A) (A) (A) (A) (A) (A) (A) (A) (A) (A)
                 (A) (A) (A) (A) (A) (A) (A) (A) (A) (A) (A) (A)
                 (A) (A) (A) (A) (A) (A) (A) (A) (A) (A) (A) (A)
                 (A) (A) (A) (A) (A) (A) (A) (A) (A) (A) (A) (A)
                 (A) (A) (A) (A) (A) (A) (A) (A) (A) (A) (A) (A)
                 (A) (A) (A) (A) (A) (A) (A) (A) (A) (A) (A) (A)
                 (A) (A) (A) (A) (A) (A) (A) (A) (A) (A) (A) (A)
                 (A) (A) (A) (A) (A) (A) (A) (A) (A) (A) (A) (A)
                 (A) (A) (A) (A) (A) (A) (A) (A) (A) (A) (A) (A)
                 (A) (A) (A) (A) (A) (A) (A) (A) (A) (A) (A) (A)
                 (A) (A) (A) (A) (A) (A) (A) (A) (A) (A) (A) (A)
                 (A) (A) (A) (A) (A) (A) (A) (A) (A) (A) (A) (A)
                 (A) (A)
 The electronic state is 1-A.
 Alpha  occ. eigenvalues --  -19.19725 -19.19622 -14.58572 -14.54118 -14.51698
 Alpha  occ. eigenvalues --  -10.29284 -10.27284 -10.25526 -10.23354 -10.22514
 Alpha  occ. eigenvalues --  -10.19053  -1.24702  -1.20483  -1.07419  -0.92149
 Alpha  occ. eigenvalues --   -0.84299  -0.80184  -0.73433  -0.70124  -0.63252
 Alpha  occ. eigenvalues --   -0.59265  -0.56370  -0.55227  -0.55137  -0.54809
 Alpha  occ. eigenvalues --   -0.52978  -0.51774  -0.50322  -0.47672  -0.45850
 Alpha  occ. eigenvalues --   -0.41337  -0.39429  -0.33245  -0.33015  -0.31276
 Alpha  occ. eigenvalues --   -0.30697  -0.29035  -0.23345
 Alpha virt. eigenvalues --   -0.12291  -0.11839  -0.11017  -0.04093  -0.02087
 Alpha virt. eigenvalues --   -0.00523   0.00176   0.00977   0.02219   0.03202
 Alpha virt. eigenvalues --    0.03428   0.04111   0.05306   0.06370   0.06455
 Alpha virt. eigenvalues --    0.07596   0.07886   0.08652   0.08903   0.09662
 Alpha virt. eigenvalues --    0.10508   0.10802   0.10866   0.11495   0.11614
 Alpha virt. eigenvalues --    0.11755   0.12419   0.13291   0.13773   0.14603
 Alpha virt. eigenvalues --    0.15600   0.16849   0.16884   0.17309   0.17832
 Alpha virt. eigenvalues --    0.18626   0.19438   0.19597   0.20271   0.20824
 Alpha virt. eigenvalues --    0.22103   0.22385   0.23103   0.23315   0.23814
 Alpha virt. eigenvalues --    0.23921   0.25207   0.25874   0.26089   0.26497
 Alpha virt. eigenvalues --    0.26850   0.27242   0.28069   0.29100   0.29177
 Alpha virt. eigenvalues --    0.30048   0.30755   0.31239   0.32070   0.32422
 Alpha virt. eigenvalues --    0.33330   0.33706   0.35163   0.37352   0.38206
 Alpha virt. eigenvalues --    0.38829   0.40908   0.41301   0.41751   0.43055
 Alpha virt. eigenvalues --    0.43538   0.43684   0.45012   0.46334   0.47142
 Alpha virt. eigenvalues --    0.47308   0.48862   0.50394   0.50875   0.52430
 Alpha virt. eigenvalues --    0.53439   0.53538   0.54775   0.54997   0.55445
 Alpha virt. eigenvalues --    0.56252   0.57962   0.58510   0.59704   0.59828
 Alpha virt. eigenvalues --    0.61591   0.62265   0.63218   0.64182   0.65082
 Alpha virt. eigenvalues --    0.66783   0.68658   0.68825   0.69270   0.69765
 Alpha virt. eigenvalues --    0.70469   0.70498   0.71799   0.72626   0.73340
 Alpha virt. eigenvalues --    0.73735   0.73880   0.75321   0.75881   0.76292
 Alpha virt. eigenvalues --    0.77534   0.79491   0.79919   0.82307   0.83441
 Alpha virt. eigenvalues --    0.83637   0.85910   0.86462   0.86622   0.87815
 Alpha virt. eigenvalues --    0.88568   0.90782   0.94886   0.94937   0.96668
 Alpha virt. eigenvalues --    0.98733   1.01202   1.04415   1.04730   1.05266
 Alpha virt. eigenvalues --    1.06009   1.06399   1.07629   1.08102   1.11649
 Alpha virt. eigenvalues --    1.12109   1.14482   1.16853   1.18494   1.18620
 Alpha virt. eigenvalues --    1.20270   1.23162   1.23352   1.23662   1.28203
 Alpha virt. eigenvalues --    1.28459   1.30583   1.31529   1.32342   1.32864
 Alpha virt. eigenvalues --    1.33805   1.35991   1.37067   1.38383   1.39089
 Alpha virt. eigenvalues --    1.41778   1.42236   1.42540   1.44277   1.44358
 Alpha virt. eigenvalues --    1.46292   1.48824   1.50023   1.50732   1.52748
 Alpha virt. eigenvalues --    1.54299   1.56893   1.59162   1.60409   1.62351
 Alpha virt. eigenvalues --    1.63630   1.67126   1.69277   1.70150   1.70898
 Alpha virt. eigenvalues --    1.73748   1.74200   1.75588   1.77612   1.80084
 Alpha virt. eigenvalues --    1.82908   1.85228   1.87670   1.87852   1.92316
 Alpha virt. eigenvalues --    1.92325   1.92981   1.97778   1.98123   1.99685
 Alpha virt. eigenvalues --    2.01873   2.02822   2.04345   2.04869   2.07653
 Alpha virt. eigenvalues --    2.09568   2.12481   2.16550   2.17943   2.18636
 Alpha virt. eigenvalues --    2.20943   2.24342   2.25796   2.29225   2.29602
 Alpha virt. eigenvalues --    2.32692   2.34203   2.34445   2.35328   2.41987
 Alpha virt. eigenvalues --    2.45294   2.48070   2.49423   2.59035   2.59805
 Alpha virt. eigenvalues --    2.63643   2.72882   2.75606   2.80405   2.81774
 Alpha virt. eigenvalues --    2.82430   2.88514   2.95501   3.00854   3.07552
 Alpha virt. eigenvalues --    3.11155   3.17617   3.27733   3.27954   3.28450
 Alpha virt. eigenvalues --    3.31456   3.35252   3.38242   3.39354   3.45059
 Alpha virt. eigenvalues --    3.52314   3.59370   3.59621   3.74642   3.78415
 Alpha virt. eigenvalues --    3.81331   4.13719
          Condensed to atoms (all electrons):
              1          2          3          4          5          6
     1  C    9.333380   0.085716   0.155392  -1.556278   0.446088  -2.633827
     2  C    0.085716   9.947438  -0.402234  -1.021443  -1.021811   0.185865
     3  C    0.155392  -0.402234  10.444725  -3.086663  -1.122704  -1.204505
     4  C   -1.556278  -1.021443  -3.086663  13.881306  -1.610998  -0.245411
     5  C    0.446088  -1.021811  -1.122704  -1.610998  10.949817  -2.908335
     6  C   -2.633827   0.185865  -1.204505  -0.245411  -2.908335  12.856489
     7  H   -1.035775  -0.222712  -0.042058   0.129636  -0.260107   0.852684
     8  H    0.035208  -0.028396   0.877129  -1.452702   0.088976  -0.108119
     9  N    0.042882  -0.224230  -0.015838   0.206207   0.026419  -0.103882
    10  N    0.019904   0.113844  -0.220366  -0.266235   0.021697  -0.034935
    11  H    0.797654  -0.087034  -0.061703  -0.103275   0.696879  -1.943978
    12  N   -0.112944   0.005889  -0.187116  -0.059389  -0.350406   0.271927
    13  O   -0.079836   0.000873   0.012171  -0.020019   0.142658   0.020055
    14  O   -0.046601   0.010951   0.009777   0.100111   0.050215  -0.059256
              7          8          9         10         11         12
     1  C   -1.035775   0.035208   0.042882   0.019904   0.797654  -0.112944
     2  C   -0.222712  -0.028396  -0.224230   0.113844  -0.087034   0.005889
     3  C   -0.042058   0.877129  -0.015838  -0.220366  -0.061703  -0.187116
     4  C    0.129636  -1.452702   0.206207  -0.266235  -0.103275  -0.059389
     5  C   -0.260107   0.088976   0.026419   0.021697   0.696879  -0.350406
     6  C    0.852684  -0.108119  -0.103882  -0.034935  -1.943978   0.271927
     7  H    2.443712   0.005618  -0.013303   0.004085  -0.229649   0.014018
     8  H    0.005618   2.574943  -0.131735  -0.024914  -0.005756  -0.038162
     9  N   -0.013303  -0.131735   8.072795  -1.352392   0.010333  -0.015024
    10  N    0.004085  -0.024914  -1.352392   9.411374   0.000409  -0.000389
    11  H   -0.229649  -0.005756   0.010333   0.000409   2.899285  -0.132809
    12  N    0.014018  -0.038162  -0.015024  -0.000389  -0.132809   7.832031
    13  O   -0.001026  -0.009589   0.000246  -0.000045  -0.022094  -0.482911
    14  O   -0.000426  -0.021645   0.004742  -0.000600  -0.009597  -0.435899
             13         14
     1  C   -0.079836  -0.046601
     2  C    0.000873   0.010951
     3  C    0.012171   0.009777
     4  C   -0.020019   0.100111
     5  C    0.142658   0.050215
     6  C    0.020055  -0.059256
     7  H   -0.001026  -0.000426
     8  H   -0.009589  -0.021645
     9  N    0.000246   0.004742
    10  N   -0.000045  -0.000600
    11  H   -0.022094  -0.009597
    12  N   -0.482911  -0.435899
    13  O    9.176966  -0.054920
    14  O   -0.054920   9.131249
 Mulliken atomic charges:
              1
     1  C    0.549037
     2  C   -1.342715
     3  C    0.843995
     4  C    1.105154
     5  C    0.851613
     6  C    1.055229
     7  H   -0.644695
     8  H   -0.760854
     9  N    0.492780
    10  N   -0.671436
    11  H   -0.808664
    12  N    0.691185
    13  O   -0.682528
    14  O   -0.678101
 Sum of Mulliken atomic charges =   0.00000
 Mulliken charges with hydrogens summed into heavy atoms:
              1
     1  C   -0.095658
     2  C   -1.342715
     3  C    0.843995
     4  C    0.344300
     5  C    0.851613
     6  C    0.246565
     9  N    0.492780
    10  N   -0.671436
    12  N    0.691185
    13  O   -0.682528
    14  O   -0.678101
 Sum of Mulliken charges with hydrogens summed into heavy atoms =   0.00000
 Electronic spatial extent (au):  <R**2>=           1813.8375
 Charge=              0.0000 electrons
 Dipole moment (field-independent basis, Debye):
    X=              3.4156    Y=             -1.0193    Z=              0.0000  Tot=              3.5644
 Quadrupole moment (field-independent basis, Debye-Ang):
   XX=            -71.8368   YY=            -61.9223   ZZ=            -61.6951
   XY=            -12.2955   XZ=              0.0000   YZ=              0.0000
 Traceless Quadrupole moment (field-independent basis, Debye-Ang):
   XX=             -6.6854   YY=              3.2291   ZZ=              3.4563
   XY=            -12.2955   XZ=              0.0000   YZ=              0.0000
 Octapole moment (field-independent basis, Debye-Ang**2):
  XXX=             28.7311  YYY=             -4.7338  ZZZ=              0.0000  XYY=             -4.8047
  XXY=            -14.1724  XXZ=              0.0000  XZZ=             -6.7689  YZZ=             -8.4542
  YYZ=              0.0000  XYZ=              0.0000
 Hexadecapole moment (field-independent basis, Debye-Ang**3):
 XXXX=          -1808.6473 YYYY=           -584.3626 ZZZZ=            -64.3774 XXXY=            -74.7926
 XXXZ=             -0.0003 YYYX=            -52.2677 YYYZ=              0.0002 ZZZX=              0.0001
 ZZZY=              0.0000 XXYY=           -417.0486 XXZZ=           -278.7290 YYZZ=           -118.3776
 XXYZ=              0.0002 YYXZ=              0.0000 ZZXY=             -4.5583
 N-N= 5.305255085898D+02 E-N=-2.332088007360D+03  KE= 5.416949664595D+02
 1\1\GINC-LC06-1-7\FTS\RB3LYP\Aug-CC-pVDZ\C6H3N3O2\UBUNTU\19-Dec-2018\0
 \\# rb3lyp/aug-cc-pVDZ opt=(ts,noeigen,calcfc) freq=noraman\\3-NO2-C6H
 3-N2-v1\\0,1\C,-1.8799339305,0.1249080153,-1.0919376342\C,-0.559023032
 1,-0.2143717942,-0.6840017092\C,-0.1268119119,0.6236059055,0.271021721
 6\C,-0.6797700097,1.7186861201,0.9253101137\C,-1.9681766059,1.98484040
 55,0.4713358958\C,-2.574656305,1.1993641452,-0.5308065073\H,-2.3809512
 526,-0.4617800254,-1.8659693523\H,-0.2004635119,2.3164725881,1.6974194
 722\N,1.3591104518,0.2797846067,0.7626739002\N,2.3503720454,-0.2130266
 506,0.8625769805\H,-3.585011458,1.4524573479,-0.8483909093\N,-2.700043
 6321,3.1160732669,1.0618912628\O,-3.8355477743,3.3387694261,0.65152436
 28\O,-2.1304030731,3.772406643,1.9326624027\\Version=EM64L-G09RevB.01\
 State=1-A\HF=-544.9742702\RMSD=9.168e-09\RMSF=1.175e-05\Dipole=1.25982
 5,-0.5968164,0.152531\Quadrupole=4.7397012,-5.9001618,1.1604606,4.7038
 287,5.2248357,-4.8337414\PG=C01 [X(C6H3N3O2)]\\@


[...]
   D25        0.00000   0.00000   0.00000   0.00000   0.00000   0.00000
   D26       -3.14159   0.00000   0.00000   0.00000   0.00000   3.14159
         Item               Value     Threshold  Converged?
 Maximum Force            0.000062     0.000450     YES
 RMS     Force            0.000014     0.000300     YES
 Maximum Displacement     0.001130     0.001800     YES
 RMS     Displacement     0.000255     0.001200     YES
 Predicted change in Energy=-1.934103D-08
 Optimization completed.
    -- Stationary point found.
                           ----------------------------
                           !   Optimized Parameters   !
                           ! (Angstroms and Degrees)  !
 --------------------------                            --------------------------
 ! Name  Definition              Value          Derivative Info.                !
 --------------------------------------------------------------------------------
 ! R1    R(1,2)                  1.4235         -DE/DX =    0.0                 !
 ! R2    R(1,6)                  1.3971         -DE/DX =    0.0                 !
 ! R3    R(1,7)                  1.0929         -DE/DX =    0.0                 !
 ! R4    R(2,3)                  1.342          -DE/DX =    0.0                 !
 ! R5    R(3,4)                  1.3903         -DE/DX =    0.0                 !
 ! R6    R(3,9)                  1.6025         -DE/DX =    0.0                 !
 ! R7    R(4,5)                  1.3917         -DE/DX =    0.0                 !
 ! R8    R(4,8)                  1.0878         -DE/DX =    0.0                 !
 ! R9    R(5,6)                  1.4103         -DE/DX =    0.0                 !
 ! R10   R(5,12)                 1.4711         -DE/DX =    0.0                 !
 ! R11   R(6,11)                 1.0889         -DE/DX =    0.0                 !
 ! R12   R(9,10)                 1.1115         -DE/DX =    0.0                 !
 ! R13   R(12,13)                1.2277         -DE/DX =    0.0                 !
 ! R14   R(12,14)                1.2302         -DE/DX =    0.0                 !
 ! A1    A(2,1,6)              121.9796         -DE/DX =    0.0                 !
 ! A2    A(2,1,7)              120.0282         -DE/DX =    0.0                 !
 ! A3    A(6,1,7)              117.9922         -DE/DX =    0.0                 !
 ! A4    A(1,2,3)              110.7294         -DE/DX =    0.0                 !
 ! A5    A(2,3,4)              134.3147         -DE/DX =    0.0                 !
 ! A6    A(2,3,9)              112.5192         -DE/DX =    0.0001              !
 ! A7    A(4,3,9)              113.1661         -DE/DX =    0.0                 !
 ! A8    A(3,4,5)              111.4265         -DE/DX =    0.0                 !
 ! A9    A(3,4,8)              126.2731         -DE/DX =    0.0                 !
 ! A10   A(5,4,8)              122.3004         -DE/DX =    0.0                 !
 ! A11   A(4,5,6)              121.5584         -DE/DX =    0.0                 !
 ! A12   A(4,5,12)             118.4687         -DE/DX =    0.0                 !
 ! A13   A(6,5,12)             119.9729         -DE/DX =    0.0                 !
 ! A14   A(1,6,5)              119.9913         -DE/DX =    0.0                 !
 ! A15   A(1,6,11)             121.5329         -DE/DX =    0.0                 !
 ! A16   A(5,6,11)             118.4758         -DE/DX =    0.0                 !
 ! A17   A(3,9,10)             161.7436         -DE/DX =    0.0                 !
 ! A18   A(5,12,13)            117.7379         -DE/DX =    0.0                 !
 ! A19   A(5,12,14)            117.6477         -DE/DX =    0.0                 !
 ! A20   A(13,12,14)           124.6144         -DE/DX =    0.0                 !
 ! D1    D(6,1,2,3)              0.0            -DE/DX =    0.0                 !
 ! D2    D(7,1,2,3)            180.0            -DE/DX =    0.0                 !
 ! D3    D(2,1,6,5)              0.0            -DE/DX =    0.0                 !
 ! D4    D(2,1,6,11)          -180.0            -DE/DX =    0.0                 !
 ! D5    D(7,1,6,5)           -180.0            -DE/DX =    0.0                 !
 ! D6    D(7,1,6,11)             0.0            -DE/DX =    0.0                 !
 ! D7    D(1,2,3,4)              0.0            -DE/DX =    0.0                 !
 ! D8    D(1,2,3,9)           -179.9999         -DE/DX =    0.0                 !
 ! D9    D(2,3,4,5)              0.0            -DE/DX =    0.0                 !
 ! D10   D(2,3,4,8)           -180.0002         -DE/DX =    0.0                 !
 ! D11   D(9,3,4,5)            179.9999         -DE/DX =    0.0                 !
 ! D12   D(9,3,4,8)             -0.0003         -DE/DX =    0.0                 !
 ! D13   D(2,3,9,10)             0.0014         -DE/DX =    0.0                 !
 ! D14   D(4,3,9,10)           180.0015         -DE/DX =    0.0                 !
 ! D15   D(3,4,5,6)              0.0            -DE/DX =    0.0                 !
 ! D16   D(3,4,5,12)           179.9999         -DE/DX =    0.0                 !
 ! D17   D(8,4,5,6)            180.0001         -DE/DX =    0.0                 !
 ! D18   D(8,4,5,12)             0.0            -DE/DX =    0.0                 !
 ! D19   D(4,5,6,1)              0.0            -DE/DX =    0.0                 !
 ! D20   D(4,5,6,11)          -180.0            -DE/DX =    0.0                 !
 ! D21   D(12,5,6,1)          -179.9999         -DE/DX =    0.0                 !
 ! D22   D(12,5,6,11)            0.0001         -DE/DX =    0.0                 !
 ! D23   D(4,5,12,13)          180.0003         -DE/DX =    0.0                 !
 ! D24   D(4,5,12,14)            0.0002         -DE/DX =    0.0                 !
 ! D25   D(6,5,12,13)            0.0003         -DE/DX =    0.0                 !
 ! D26   D(6,5,12,14)          180.0001         -DE/DX =    0.0                 !
 --------------------------------------------------------------------------------
 GradGradGradGradGradGradGradGradGradGradGradGradGradGradGradGradGradGrad

 1\1\GINC-LC06-1-7\Freq\RB3LYP\Aug-CC-pVDZ\C6H3N3O2\UBUNTU\19-Dec-2018\
 0\\#N Geom=AllCheck Guess=TCheck SCRF=Check GenChk RB3LYP/Aug-CC-pVDZ 
 Freq\\3-NO2-C6H3-N2-v1\\0,1\C,-1.8799339305,0.1249080153,-1.0919376342
 \C,-0.5590230321,-0.2143717942,-0.6840017092\C,-0.1268119119,0.6236059
 055,0.2710217216\C,-0.6797700097,1.7186861201,0.9253101137\C,-1.968176
 6059,1.9848404055,0.4713358958\C,-2.574656305,1.1993641452,-0.53080650
 73\H,-2.3809512526,-0.4617800254,-1.8659693523\H,-0.2004635119,2.31647
 25881,1.6974194722\N,1.3591104518,0.2797846067,0.7626739002\N,2.350372
 0454,-0.2130266506,0.8625769805\H,-3.585011458,1.4524573479,-0.8483909
 093\N,-2.7000436321,3.1160732669,1.0618912628\O,-3.8355477743,3.338769
 4261,0.6515243628\O,-2.1304030731,3.772406643,1.9326624027\\Version=EM
 64L-G09RevB.01\State=1-A\HF=-544.9742702\RMSD=4.357e-09\RMSF=1.175e-05
 \ZeroPoint=0.0846829\Thermal=0.0935109\Dipole=1.2598245,-0.5968162,0.1
 525309\DipoleDeriv=-0.0032412,0.2352387,0.246465,0.3553508,-0.0005113,
 0.2609023,0.3504489,0.1971009,0.2729351,-0.3044494,-0.0156163,-0.00778
 ,-0.3328007,-0.5694219,-0.3968138,-0.2823716,-0.2283301,-0.6629081,0.3
 291303,0.2035963,0.3035753,0.2781921,0.1474972,0.19804,0.3681594,0.158
 4169,0.4221321,0.2383803,-0.263955,-0.1104684,-0.213973,0.1706078,0.02
 00412,-0.0672024,-0.0065062,-0.0251633,-0.3349384,0.2747442,0.0529108,
 0.2689321,-0.311574,-0.1383216,0.047879,-0.1352345,-0.0784208,-0.02711
 77,0.0501258,0.0275535,-0.1189973,0.1093886,0.0291476,-0.1188564,0.118
 982,0.0425725,-0.0113813,-0.0146927,-0.0689484,-0.0440055,0.0366874,-0
 .0734009,-0.0943247,-0.0578302,-0.0056941,0.08279,-0.0208847,-0.052235
 9,-0.0012729,0.1179499,-0.0259037,-0.0352577,-0.0363218,0.0969188,1.02
 26519,-0.3395428,0.1970949,-0.573441,0.0458788,-0.3499327,-0.0054093,-
 0.2256918,-0.1000165,-0.9339629,0.0866613,-0.4547978,0.5746956,0.07885
 11,0.3185908,-0.0322888,0.0593549,0.0976966,0.0326204,0.0100319,-0.036
 9361,0.0408512,0.1174878,0.0208197,-0.0102566,0.0044494,0.116908,1.490
 1685,-0.4627297,0.2713692,-0.6083665,1.3218866,0.6262955,0.1452926,0.7
 03656,0.9114754,-1.0525067,0.264573,-0.2074456,0.3599352,-0.5241594,-0
 .0627902,-0.1248893,-0.1134451,-0.3953253,-0.5281437,-0.0075498,-0.160
 3567,0.0148996,-0.7405687,-0.4266741,-0.1409231,-0.4386004,-0.6931104\
 Polar=142.7978799,-29.9415037,104.6930615,20.0684266,26.058904,89.4391
 153\PG=C01 [X(C6H3N3O2)]\NImag=1\\0.53169907,-0.06712803,0.45411219,0.
 15250938,0.24043672,0.42434477,-0.24839810,0.03280738,-0.07858544,0.41
 215993,0.04197580,-0.05296607,0.01712145,0.01652567,0.22618159,-0.0706
 4817,0.01225123,-0.07390913,0.20119634,0.15236022,0.29909675,-0.023702
 87,-0.02909884,-0.03208757,-0.09353627,-0.00154555,-0.03315105,0.16303
 360,-0.03115388,0.00118245,-0.00624533,-0.06925817,-0.17192756,-0.1564
 9937,-0.06427653,0.48328269,-0.03386679,-0.00515378,-0.03317030,-0.091
 76999,-0.12053120,-0.18673728,-0.01657859,0.30676427,0.34624980,-0.037
 57536,0.02986531,0.00718264,0.04493358,-0.00136337,0.01457206,-0.08592
 684,0.05003279,0.02404590,0.59149762,0.02494313,-0.02303075,-0.0045895
 8,-0.02268256,-0.00830260,-0.03246328,0.07251857,-0.23905343,-0.125441
 91,-0.07995952,0.49419679,0.00292155,-0.00197499,-0.00258216,-0.003884
 07,-0.02113876,-0.00508410,0.04351188,-0.13738606,-0.14547717,0.178358
 34,0.27678537,0.45976717,0.04724545,-0.02118927,0.00318753,-0.03194738
 ,-0.01088265,-0.02365838,-0.04818784,0.06568512,0.02832110,-0.29616983
 ,0.01820279,-0.10931488,0.61452642,0.01150969,-0.03099506,-0.02652886,
 -0.00840919,0.00147448,0.00126344,0.01964009,-0.01017891,-0.00318046,0
 .05761860,-0.09495542,0.00096025,-0.07328013,0.39755594,0.03149499,-0.
 04389812,-0.01456139,-0.02151700,-0.00005040,-0.01661808,-0.01154021,0
 .02127797,0.01783646,-0.07519239,-0.01997687,-0.11794575,0.19113239,0.
 18813121,0.39966850,-0.16241472,0.11380482,0.04690768,-0.02649747,0.02
 350108,-0.00180257,-0.00669247,0.00131701,0.00096740,-0.01996914,-0.01
 211302,-0.02471446,-0.15475737,-0.05428206,-0.09476495,0.65568571,0.06
 632797,-0.22811326,-0.10575972,0.05143488,0.00303658,0.01679441,0.0140
 3691,-0.03052362,-0.01345597,-0.04041740,0.03158225,-0.00002932,-0.015
 37661,-0.14060943,-0.07377798,-0.14399862,0.46681522,0.00580692,-0.080
 54064,-0.13188828,0.02237974,0.00195631,0.02877835,0.01197905,-0.02021
 263,-0.01750232,-0.04921757,0.01500553,-0.00633694,-0.06108447,-0.0944
 4398,-0.17902878,0.14818263,0.20466937,0.39793431,-0.10224772,-0.06713
 690,-0.09086421,-0.01802656,-0.00866041,-0.01677975,-0.00230781,-0.001
 35324,-0.00662906,-0.00116161,0.00046798,0.00035342,0.00061981,0.00358
 193,-0.00078861,0.00849414,0.01107255,0.01122695,0.11416395,-0.0629290
 4,-0.13172863,-0.11231272,0.00426876,0.00494160,0.00702311,0.00270737,
 0.00501963,-0.00111293,0.00036438,-0.00031742,0.00084010,0.00471975,0.
 00062472,-0.00382759,-0.01040006,-0.00985096,-0.01873066,0.06303531,0.
 13299212,-0.08722148,-0.11454789,-0.18610083,-0.00558691,0.00015529,-0
 .00338501,-0.00311377,-0.00326988,0.00348170,0.00026373,0.00089514,-0.
 00014926,0.00019640,-0.00443199,0.00420962,-0.00736193,-0.00732465,-0.
 00484751,0.10169547,0.12658613,0.18905181,-0.00095514,0.00108983,0.000
 70569,0.00068721,0.00109563,-0.00126718,0.00937224,0.01011307,0.012612
 55,-0.11100258,-0.06617813,-0.09805508,-0.00486732,-0.01601757,-0.0192
 5906,-0.00345902,0.00376815,-0.00223752,-0.00008888,-0.00051031,0.0004
 8196,0.10818124,0.00080481,-0.00045946,0.00046909,0.00358279,-0.000239
 34,-0.00250995,-0.01110173,-0.00776420,-0.01444528,-0.06813562,-0.1331
 6584,-0.12181541,0.00222007,0.00865019,0.00409289,0.00372498,0.0026563
 0,-0.00169029,-0.00053272,-0.00064950,0.00073714,0.07111354,0.13309488
 ,0.00045896,0.00062047,0.00027344,0.00088592,-0.00383106,0.00201236,-0
 .00575313,-0.00317618,-0.00369561,-0.09974975,-0.12077568,-0.19180296,
 -0.00347062,-0.00559474,-0.00140236,-0.00227487,-0.00166736,0.00424260
 ,0.00046256,0.00074905,-0.00093371,0.10698977,0.13337630,0.19495915,0.
 00090500,0.00123033,-0.00850499,-0.04723219,-0.05354221,-0.06096561,0.
 13138694,0.01705767,0.09235014,-0.06787921,0.02943917,-0.00367882,0.01
 997564,0.01129791,0.01623333,0.00074420,-0.00781515,-0.00567833,-0.000
 36102,0.00112770,0.00011070,0.00197076,-0.00299636,-0.00086625,1.07543
 470,0.00125050,0.01776693,-0.00033498,-0.00728234,-0.02293249,-0.00664
 956,-0.01213958,-0.02738182,-0.01745278,0.03301999,-0.00992224,0.02018
 234,-0.00019840,-0.00195002,-0.00857014,-0.00304670,-0.00284668,-0.002
 95504,0.00025648,0.00025232,-0.00074341,-0.00288278,0.00189115,0.00121
 560,-0.54591761,0.32942926,-0.00848743,-0.00034531,0.01411378,-0.02091
 799,-0.03122309,-0.05786099,0.06707433,-0.00194321,0.01927668,-0.00057
 905,0.01828040,0.00254299,0.00628103,-0.00246340,0.00903173,-0.0015503
 5,-0.00548810,-0.00687719,-0.00064349,-0.00028065,0.00068365,-0.000767
 90,0.00115529,-0.00068963,0.07814944,-0.03818181,0.04702892,-0.0006150
 4,0.00907769,0.01077178,0.01048177,-0.01112597,-0.00814022,-0.04377378
 ,0.02345292,-0.00316233,0.00677257,-0.00430273,-0.00360924,-0.00587229
 ,0.00008682,-0.00205053,-0.00199151,0.00079300,-0.00063150,0.00029590,
 -0.00066335,-0.00018315,-0.00106598,0.00121558,0.00053014,-1.11044472,
 0.53455029,-0.11933232,1.14532221,-0.00157949,-0.01105549,-0.00512961,
 -0.00427605,0.02323952,0.01120396,0.00849094,-0.00998052,-0.00447885,-
 0.00174850,0.00207490,-0.00480708,0.00092503,-0.00104929,0.00120235,0.
 00214957,0.00149678,0.00201363,-0.00029526,0.00014919,0.00035356,0.001
 16485,-0.00113395,-0.00029119,0.54885487,-0.28405594,0.05825088,-0.553
 09295,0.28039027,0.00154579,0.00053105,-0.00481840,-0.00221051,0.00756
 607,0.01304951,-0.01611535,0.00346842,-0.00515469,-0.00139796,-0.00616
 389,0.00047619,-0.00132489,0.00075703,-0.00191897,0.00054295,0.0012931
 1,0.00189756,0.00013548,0.00015805,-0.00023159,0.00048622,-0.00026425,
 -0.00005335,-0.10694821,0.05065247,-0.02753785,0.12568303,-0.05735651,
 0.02438668,-0.00618502,0.00064248,-0.00632041,-0.00046704,0.00209735,-
 0.00083071,0.00212675,0.00142782,0.00047382,0.00114238,0.00005500,-0.0
 0199643,-0.00793075,0.00383965,-0.00338637,-0.30204371,0.06143407,-0.0
 8537161,0.00012225,-0.00103456,0.00120747,-0.00002784,0.00033629,-0.00
 006480,-0.00154801,-0.00099246,0.00067867,0.00016127,0.00051466,-0.000
 28531,0.31666714,0.02042474,0.00192044,0.00665910,0.00417373,0.0000257
 1,-0.00166934,-0.00026063,-0.00067335,-0.00380478,-0.00024647,-0.00071
 277,-0.00506821,-0.01578167,0.00814491,-0.00540250,0.06386469,-0.06495
 209,0.01336458,-0.00134286,-0.00086887,0.00185619,-0.00079788,0.000642
 88,-0.00042326,-0.00034958,-0.00090326,0.00287881,0.00093363,-0.000093
 35,-0.00091565,-0.07085298,0.05951708,0.01080510,-0.00384892,0.0091682
 3,0.00096687,-0.00277232,0.00262858,-0.00098791,-0.00290789,0.00051961
 ,-0.00225742,-0.00490805,-0.00045759,-0.02037257,0.00502011,-0.0017737
 0,-0.08326741,0.01207341,-0.07498167,0.00094058,0.00201996,-0.00158868
 ,-0.00104666,0.00017920,0.00024139,0.00123526,0.00253728,-0.00159043,0
 .00007735,-0.00113817,0.00059295,0.09299762,-0.00872382,0.06796635,0.0
 0366995,-0.00620643,-0.00671889,-0.00306329,0.00036672,-0.00028521,-0.
 00424529,-0.00233855,-0.00820108,-0.02152668,0.03005992,0.01584034,-0.
 10335933,0.01032418,-0.00382353,0.01719949,0.00242450,0.01250342,0.000
 58246,-0.00099289,-0.00095416,-0.00106792,-0.00161768,0.00068161,-0.00
 235659,0.00281986,-0.00078436,0.00073402,-0.00093388,0.00025200,-0.003
 37882,-0.00240680,-0.00201449,0.76952234,-0.00583132,0.00579006,-0.003
 45577,-0.00193347,-0.00290311,-0.00187056,0.00055012,0.01193497,0.0042
 3313,0.02503494,-0.01681162,0.00078481,0.00998696,-0.10514001,-0.01703
 401,0.00594006,-0.02634001,-0.01758018,0.00079708,0.00021063,-0.000052
 70,-0.00382357,-0.00124994,0.00120467,0.00459190,0.00049017,-0.0003532
 9,-0.00410138,0.00137064,0.00010091,0.00017501,-0.00032271,0.00285122,
 -0.04872397,0.49892062,-0.00639419,-0.00365498,-0.00035676,-0.00227647
 ,-0.00064873,-0.00369958,-0.00570035,0.00269874,0.00669099,0.01149015,
 0.00345410,0.00673660,-0.00411536,-0.01685514,-0.09611307,0.01554684,-
 0.01944765,-0.01096544,0.00059542,-0.00100351,0.00020813,-0.00122797,0
 .00237638,-0.00358262,0.00074964,-0.00129449,0.00299325,-0.00249009,0.
 00178338,-0.00104120,0.00022061,0.00147981,-0.00211061,0.24345662,0.20
 538191,0.53890016,-0.00182407,0.00178844,0.00071409,0.00011206,-0.0000
 6808,0.00007918,0.00001275,0.00167791,0.00187214,0.00413110,0.00321912
 ,0.00332800,-0.04836613,0.03342742,-0.00705862,-0.00260922,-0.00537549
 ,-0.00667235,0.00009003,0.00021406,0.00023379,0.00136418,-0.00068707,-
 0.00015960,-0.00027571,0.00056938,0.00089950,-0.00040659,0.00005382,-0
 .00033746,0.00092285,0.00169716,0.00203778,-0.46494554,0.09490730,-0.1
 2391672,0.57077992,0.00067464,0.00055943,0.00106229,0.00137712,-0.0003
 7656,0.00053362,0.00135478,-0.00167508,-0.00005765,-0.00128438,-0.0018
 7144,-0.00499669,0.04339861,-0.00220517,0.00434744,0.00221815,-0.00236
 016,-0.00189628,-0.00008746,-0.00007053,-0.00010646,0.00032389,0.00018
 278,-0.00014150,-0.00116234,-0.00063908,-0.00026929,0.00132801,-0.0003
 4099,0.00013626,0.00250191,-0.00225147,-0.00049247,0.09794046,-0.13063
 397,0.00557714,-0.10914688,0.10867202,-0.00025010,0.00165391,0.0010452
 4,0.00133029,-0.00023407,0.00035604,0.00159243,0.00011400,0.00016737,-
 0.00057071,-0.00260453,0.00055437,0.00157339,-0.00094897,0.01941582,-0
 .00009852,-0.00592984,-0.00399456,-0.00002724,0.00005371,0.00003081,0.
 00071554,-0.00067849,0.00033769,-0.00059961,0.00065054,-0.00079651,0.0
 0076560,-0.00054055,0.00025515,0.00273445,-0.00091994,0.00050863,-0.12
 129078,0.00396593,-0.13797563,0.19369656,0.01165273,0.14121638,0.00039
 858,0.00045318,0.00110273,0.00079374,0.00162600,0.00168127,0.00244090,
 -0.00238394,-0.00043521,-0.00726600,0.00633030,0.00093944,0.01909092,0
 .00066265,0.00052057,-0.00168889,0.00169124,-0.00118537,-0.00017495,0.
 00009288,0.00023189,0.00095903,0.00207312,0.00233008,-0.00031981,-0.00
 000664,-0.00002008,0.00040215,-0.00022759,-0.00002576,0.00043854,0.000
 94490,0.00088589,-0.18776479,-0.07756965,-0.12593813,-0.05898563,-0.03
 943650,-0.07957129,0.23167619,0.00071047,-0.00298280,-0.00139209,-0.00
 032854,0.00074824,0.00023205,-0.00087592,-0.00226124,-0.00188181,-0.00
 278074,0.00028959,-0.00233637,-0.00842960,-0.02936692,-0.04651425,0.00
 732010,0.00000907,0.00104027,0.00019753,-0.00070431,-0.00010646,0.0015
 4127,-0.00245595,-0.00126513,-0.00181629,0.00080170,-0.00001723,0.0018
 4844,-0.00101178,0.00003693,-0.00014425,0.00052685,0.00011047,-0.08071
 544,-0.23531571,-0.17984696,-0.02227707,0.03301021,-0.00623441,0.10575
 004,0.23871306,0.00132547,-0.00152874,-0.00155821,-0.00001079,0.001270
 27,0.00137256,0.00087026,-0.00268284,-0.00248523,-0.00694796,0.0025032
 5,-0.00024139,-0.00735066,-0.04168451,-0.02080001,0.00368756,-0.001949
 71,0.00356987,0.00032249,-0.00016205,-0.00042912,0.00186965,-0.0009826
 3,0.00009363,-0.00158669,0.00094400,-0.00031840,0.00177147,-0.00106580
 ,0.00009800,-0.00005700,0.00068899,0.00087695,-0.12866148,-0.17817607,
 -0.29968422,-0.06471629,-0.01534915,-0.02112078,0.19948397,0.23817499,
 0.34062635\\0.00000263,0.00001140,0.00001141,0.00005016,-0.00002128,0.
 00000813,-0.00000927,0.00001514,0.00000831,-0.00000476,0.00000014,-0.0
 0000274,0.00000416,0.00000154,0.00000358,-0.00000135,-0.00000091,-0.00
 000146,0.00000067,-0.00000049,-0.00000011,0.00000035,0.00000005,0.0000
 0037,-0.00000533,-0.00001407,-0.00001479,-0.00003692,0.00000703,-0.000
 01367,-0.00000057,0.00000104,0.00000056,-0.00000049,0.00000007,-0.0000
 0063,0.00000054,0.00000033,0.00000077,0.00000018,0.00000002,0.00000027
 \\\@


 The chemist is a guest at the physicist's table and
 frequently dines well.
                   -- Richard Bersohn
 Job cpu time:  0 days  1 hours  9 minutes 40.7 seconds.
 File lengths (MBytes):  RWF=    119 Int=      0 D2E=      0 Chk=      6 Scr=      1
 Normal termination of Gaussian 09 at Wed Dec 19 09:12:35 2018.
