 Entering Gaussian System, Link 0=/home/ubuntu/g09/g09
 Input=4-Br-C6H3-TS.gjf
 Output=4-Br-C6H3-TS.log
 Initial command:
 /home/ubuntu/g09/l1.exe /home/ubuntu/g09/Gau-26121.inp -scrdir=/home/ubuntu/g09/
 Entering Link 1 = /home/ubuntu/g09/l1.exe PID=     26123.
  
 Copyright (c) 1988,1990,1992,1993,1995,1998,2003,2009,2010,
            Gaussian, Inc.  All Rights Reserved.
  
 This is part of the Gaussian(R) 09 program.  It is based on
 the Gaussian(R) 03 system (copyright 2003, Gaussian, Inc.),
 the Gaussian(R) 98 system (copyright 1998, Gaussian, Inc.),
 the Gaussian(R) 94 system (copyright 1995, Gaussian, Inc.),
 the Gaussian 92(TM) system (copyright 1992, Gaussian, Inc.),
 the Gaussian 90(TM) system (copyright 1990, Gaussian, Inc.),
 the Gaussian 88(TM) system (copyright 1988, Gaussian, Inc.),
 the Gaussian 86(TM) system (copyright 1986, Carnegie Mellon
 University), and the Gaussian 82(TM) system (copyright 1983,
 Carnegie Mellon University). Gaussian is a federally registered
 trademark of Gaussian, Inc.
  
 This software contains proprietary and confidential information,
 including trade secrets, belonging to Gaussian, Inc.
  
 This software is provided under written license and may be
 used, copied, transmitted, or stored only in accord with that
 written license.
  
 The following legend is applicable only to US Government
 contracts under FAR:
  
                    RESTRICTED RIGHTS LEGEND
  
 Use, reproduction and disclosure by the US Government is
 subject to restrictions as set forth in subparagraphs (a)
 and (c) of the Commercial Computer Software - Restricted
 Rights clause in FAR 52.227-19.
  
 Gaussian, Inc.
 340 Quinnipiac St., Bldg. 40, Wallingford CT 06492
  
  
 ---------------------------------------------------------------
 Warning -- This program may not be used in any manner that
 competes with the business of Gaussian, Inc. or will provide
 assistance to any competitor of Gaussian, Inc.  The licensee
 of this program is prohibited from giving any competitor of
 Gaussian, Inc. access to this program.  By using this program,
 the user acknowledges that Gaussian, Inc. is engaged in the
 business of creating and licensing software in the field of
 computational chemistry and represents and warrants to the
 licensee that it is not a competitor of Gaussian, Inc. and that
 it will not use this program in any manner prohibited above.
 ---------------------------------------------------------------
  

 Cite this work as:
 Gaussian 09, Revision B.01,
 M. J. Frisch, G. W. Trucks, H. B. Schlegel, G. E. Scuseria, 
 M. A. Robb, J. R. Cheeseman, G. Scalmani, V. Barone, B. Mennucci, 
 G. A. Petersson, H. Nakatsuji, M. Caricato, X. Li, H. P. Hratchian, 
 A. F. Izmaylov, J. Bloino, G. Zheng, J. L. Sonnenberg, M. Hada, 
 M. Ehara, K. Toyota, R. Fukuda, J. Hasegawa, M. Ishida, T. Nakajima, 
 Y. Honda, O. Kitao, H. Nakai, T. Vreven, J. A. Montgomery, Jr., 
 J. E. Peralta, F. Ogliaro, M. Bearpark, J. J. Heyd, E. Brothers, 
 K. N. Kudin, V. N. Staroverov, T. Keith, R. Kobayashi, J. Normand, 
 K. Raghavachari, A. Rendell, J. C. Burant, S. S. Iyengar, J. Tomasi, 
 M. Cossi, N. Rega, J. M. Millam, M. Klene, J. E. Knox, J. B. Cross, 
 V. Bakken, C. Adamo, J. Jaramillo, R. Gomperts, R. E. Stratmann, 
 O. Yazyev, A. J. Austin, R. Cammi, C. Pomelli, J. W. Ochterski, 
 R. L. Martin, K. Morokuma, V. G. Zakrzewski, G. A. Voth, 
 P. Salvador, J. J. Dannenberg, S. Dapprich, A. D. Daniels, 
 O. Farkas, J. B. Foresman, J. V. Ortiz, J. Cioslowski, 
 and D. J. Fox, Gaussian, Inc., Wallingford CT, 2010.
 
 ******************************************
 Gaussian 09:  EM64L-G09RevB.01 12-Aug-2010
                19-Dec-2018 
 ******************************************
 %chk=4-Br-C6H3-TS.chk
 %mem=500MW
 %nproc=7
 Will use up to    7 processors via shared memory.
 ---------------------------------------------------------
 # rb3lyp/aug-cc-pVDZ opt=(ts,noeigen,calcfc) freq=noraman
 ---------------------------------------------------------
 1/5=1,10=4,11=1,14=-1,18=20,26=3,38=1/1,3;
 2/9=110,12=2,17=6,18=5,40=1/2;
 3/5=16,7=10,11=2,16=1,25=1,30=1,71=2,74=-5,116=1/1,2,3;
 4//1;
 5/5=2,38=5/2;
 8/6=4,10=90,11=11/1;
 11/6=1,8=1,9=11,15=111,16=1/1,2,10;
 10/6=1,7=6,13=1/2;
 6/7=2,8=2,9=2,10=2,28=1/1;
 7/10=1,18=20,25=1/1,2,3,16;
 1/5=1,10=4,11=1,14=-1,18=20/3(2);
 2/9=110/2;
 99//99;
 2/9=110/2;
 3/5=16,7=10,11=2,16=1,25=1,30=1,71=1,74=-5,116=1/1,2,3;
 4/5=5,16=3/1;
 5/5=2,38=5/2;
 7//1,2,3,16;
 1/5=1,11=1,14=-1,18=20/3(-5);
 2/9=110/2;
 6/7=2,8=2,9=2,10=2,19=2,28=1/1;
 99/9=1/99;
 ---------
 4-Br-C6H3
 ---------
 Symbolic Z-matrix:
 Charge =  0 Multiplicity = 1
 C                    -1.37794  -1.51241  -1.07175 
 C                     0.01122  -1.23027  -1.10144 
 C                     0.25186   0.06697  -0.88221 
 C                    -0.55395   1.17709  -0.63605 
 C                    -1.90887   0.86111  -0.61443 
 C                    -2.29159  -0.48053  -0.83342 
 H                    -1.75413  -2.52488  -1.23195 
 H                    -0.18125   2.18933  -0.47568 
 H                    -2.65758   1.62867  -0.43315 
 N                     1.83515   0.41713  -0.91092 
 N                     2.94009   0.31976  -0.99236 
 Br                   -4.17561  -0.88249  -0.79665 
 

 GradGradGradGradGradGradGradGradGradGradGradGradGradGradGradGradGradGrad
 Berny optimization.
 Initialization pass.
                           ----------------------------
                           !    Initial Parameters    !
                           ! (Angstroms and Degrees)  !
 --------------------------                            --------------------------
 ! Name  Definition              Value          Derivative Info.                !
 --------------------------------------------------------------------------------
 ! R1    R(1,2)                  1.4178         calculate D2E/DX2 analytically  !
 ! R2    R(1,6)                  1.3987         calculate D2E/DX2 analytically  !
 ! R3    R(1,7)                  1.0919         calculate D2E/DX2 analytically  !
 ! R4    R(2,3)                  1.3375         calculate D2E/DX2 analytically  !
 ! R5    R(3,4)                  1.3937         calculate D2E/DX2 analytically  !
 ! R6    R(3,10)                 1.6218         calculate D2E/DX2 analytically  !
 ! R7    R(4,5)                  1.3914         calculate D2E/DX2 analytically  !
 ! R8    R(4,8)                  1.0905         calculate D2E/DX2 analytically  !
 ! R9    R(5,6)                  1.4122         calculate D2E/DX2 analytically  !
 ! R10   R(5,9)                  1.0875         calculate D2E/DX2 analytically  !
 ! R11   R(6,12)                 1.9268         calculate D2E/DX2 analytically  !
 ! R12   R(10,11)                1.1122         calculate D2E/DX2 analytically  !
 ! A1    A(2,1,6)              119.7865         calculate D2E/DX2 analytically  !
 ! A2    A(2,1,7)              121.2651         calculate D2E/DX2 analytically  !
 ! A3    A(6,1,7)              118.9484         calculate D2E/DX2 analytically  !
 ! A4    A(1,2,3)              111.4606         calculate D2E/DX2 analytically  !
 ! A5    A(2,3,4)              134.2281         calculate D2E/DX2 analytically  !
 ! A6    A(2,3,10)             112.4678         calculate D2E/DX2 analytically  !
 ! A7    A(4,3,10)             113.3041         calculate D2E/DX2 analytically  !
 ! A8    A(3,4,5)              112.6361         calculate D2E/DX2 analytically  !
 ! A9    A(3,4,8)              124.5924         calculate D2E/DX2 analytically  !
 ! A10   A(5,4,8)              122.7715         calculate D2E/DX2 analytically  !
 ! A11   A(4,5,6)              118.5036         calculate D2E/DX2 analytically  !
 ! A12   A(4,5,9)              120.8455         calculate D2E/DX2 analytically  !
 ! A13   A(6,5,9)              120.6509         calculate D2E/DX2 analytically  !
 ! A14   A(1,6,5)              123.3851         calculate D2E/DX2 analytically  !
 ! A15   A(1,6,12)             119.2137         calculate D2E/DX2 analytically  !
 ! A16   A(5,6,12)             117.4012         calculate D2E/DX2 analytically  !
 ! A17   A(3,10,11)            162.226          calculate D2E/DX2 analytically  !
 ! D1    D(6,1,2,3)              0.0006         calculate D2E/DX2 analytically  !
 ! D2    D(7,1,2,3)           -179.9999         calculate D2E/DX2 analytically  !
 ! D3    D(2,1,6,5)             -0.0008         calculate D2E/DX2 analytically  !
 ! D4    D(2,1,6,12)           179.9991         calculate D2E/DX2 analytically  !
 ! D5    D(7,1,6,5)            179.9997         calculate D2E/DX2 analytically  !
 ! D6    D(7,1,6,12)            -0.0004         calculate D2E/DX2 analytically  !
 ! D7    D(1,2,3,4)             -0.0002         calculate D2E/DX2 analytically  !
 ! D8    D(1,2,3,10)          -179.9996         calculate D2E/DX2 analytically  !
 ! D9    D(2,3,4,5)             -0.0001         calculate D2E/DX2 analytically  !
 ! D10   D(2,3,4,8)            179.9996         calculate D2E/DX2 analytically  !
 ! D11   D(10,3,4,5)           179.9994         calculate D2E/DX2 analytically  !
 ! D12   D(10,3,4,8)            -0.001          calculate D2E/DX2 analytically  !
 ! D13   D(2,3,10,11)           -0.003          calculate D2E/DX2 analytically  !
 ! D14   D(4,3,10,11)          179.9974         calculate D2E/DX2 analytically  !
 ! D15   D(3,4,5,6)              0.0            calculate D2E/DX2 analytically  !
 ! D16   D(3,4,5,9)           -179.9996         calculate D2E/DX2 analytically  !
 ! D17   D(8,4,5,6)           -179.9997         calculate D2E/DX2 analytically  !
 ! D18   D(8,4,5,9)              0.0007         calculate D2E/DX2 analytically  !
 ! D19   D(4,5,6,1)              0.0005         calculate D2E/DX2 analytically  !
 ! D20   D(4,5,6,12)          -179.9994         calculate D2E/DX2 analytically  !
 ! D21   D(9,5,6,1)           -179.9999         calculate D2E/DX2 analytically  !
 ! D22   D(9,5,6,12)             0.0002         calculate D2E/DX2 analytically  !
 --------------------------------------------------------------------------------
 Trust Radius=3.00D-01 FncErr=1.00D-07 GrdErr=1.00D-06
 Number of steps in this run=     61 maximum allowed number of steps=    100.
 Search for a saddle point of order  1.
 GradGradGradGradGradGradGradGradGradGradGradGradGradGradGradGradGradGrad

                          Input orientation:                          
 ---------------------------------------------------------------------
 Center     Atomic      Atomic             Coordinates (Angstroms)
 Number     Number       Type             X           Y           Z
 ---------------------------------------------------------------------
      1          6           0       -1.377940   -1.512410   -1.071750
      2          6           0        0.011220   -1.230270   -1.101440
      3          6           0        0.251860    0.066970   -0.882210
      4          6           0       -0.553950    1.177090   -0.636050
      5          6           0       -1.908870    0.861110   -0.614430
      6          6           0       -2.291590   -0.480530   -0.833420
      7          1           0       -1.754130   -2.524880   -1.231950
      8          1           0       -0.181250    2.189330   -0.475680
      9          1           0       -2.657580    1.628670   -0.433150
     10          7           0        1.835150    0.417130   -0.910920
     11          7           0        2.940090    0.319760   -0.992360
     12         35           0       -4.175610   -0.882490   -0.796650
 ---------------------------------------------------------------------
                    Distance matrix (angstroms):
                    1          2          3          4          5
     1  C    0.000000
     2  C    1.417833   0.000000
     3  C    2.277414   1.337461   0.000000
     4  C    2.846437   2.516225   1.393661   0.000000
     5  C    2.474798   2.880589   2.317567   1.391445   0.000000
     6  C    1.398690   2.436571   2.602167   2.409575   1.412243
     7  H    1.091915   2.193059   3.296058   3.937018   3.445316
     8  H    3.935765   3.481707   2.203920   1.090529   2.183596
     9  H    3.451329   3.967700   3.332477   2.161100   1.087464
    10  N    3.751392   2.465146   1.621803   2.522081   3.781892
    11  N    4.691325   3.315535   2.702335   3.615285   4.893700
    12  Br   2.880874   4.212291   4.528939   4.169422   2.865564
                    6          7          8          9         10
     6  C    0.000000
     7  H    2.151059   0.000000
     8  H    3.421939   5.026895   0.000000
     9  H    2.177818   4.325076   2.539362   0.000000
    10  N    4.223953   4.652033   2.719558   4.677683   0.000000
    11  N    5.294922   5.494095   3.674917   5.775800   1.112208
    12  Br   1.926773   2.958124   5.049160   2.956767   6.150716
                   11         12
    11  N    0.000000
    12  Br   7.219203   0.000000
 Stoichiometry    C6H3BrN2
 Framework group  C1[X(C6H3BrN2)]
 Deg. of freedom    30
 Full point group                 C1      NOp   1
 Largest Abelian subgroup         C1      NOp   1
 Largest concise Abelian subgroup C1      NOp   1
                         Standard orientation:                         
 ---------------------------------------------------------------------
 Center     Atomic      Atomic             Coordinates (Angstroms)
 Number     Number       Type             X           Y           Z
 ---------------------------------------------------------------------
      1          6           0        0.124936   -1.226831    0.000014
      2          6           0        1.542766   -1.223907    0.000006
      3          6           0        2.029523    0.021833    0.000006
      4          6           0        1.453144    1.290721    0.000008
      5          6           0        0.062381    1.247177    0.000010
      6          6           0       -0.572392   -0.014367    0.000008
      7          1           0       -0.439841   -2.161339    0.000018
      8          1           0        2.014451    2.225701    0.000013
      9          1           0       -0.524134    2.162916    0.000006
     10          7           0        3.651013    0.053683   -0.000014
     11          7           0        4.716597   -0.264966   -0.000009
     12         35           0       -2.499025   -0.037602   -0.000005
 ---------------------------------------------------------------------
 Rotational constants (GHZ):      5.6027115      0.4593870      0.4245746
 Standard basis: Aug-CC-pVDZ (5D, 7F)
 There are   247 symmetry adapted basis functions of A   symmetry.
 Integral buffers will be    131072 words long.
 Raffenetti 2 integral format.
 Two-electron integral symmetry is turned on.
   247 basis functions,   534 primitive gaussians,   266 cartesian basis functions
    44 alpha electrons       44 beta electrons
       nuclear repulsion energy       555.8540624885 Hartrees.
 NAtoms=   12 NActive=   12 NUniq=   12 SFac= 1.00D+00 NAtFMM=   50 NAOKFM=F Big=F
 One-electron integrals computed using PRISM.
 NBasis=   247 RedAO= T  NBF=   247
 NBsUse=   247 1.00D-06 NBFU=   247
 Harris functional with IExCor=  402 diagonalized for initial guess.
 ExpMin= 2.97D-02 ExpMax= 6.40D+05 ExpMxC= 6.18D+03 IAcc=3 IRadAn=         0 AccDes= 0.00D+00
 HarFok:  IExCor=  402 AccDes= 0.00D+00 IRadAn=         0 IDoV= 1
 ScaDFX=  1.000000  1.000000  1.000000  1.000000
 FoFCou: FMM=F IPFlag=           0 FMFlag=      100000 FMFlg1=           0
         NFxFlg=           0 DoJE=T BraDBF=F KetDBF=T FulRan=T
         Omega=  0.000000  0.000000  1.000000  0.000000  0.000000 ICntrl=     500 IOpCl=  0
         NMat0=    1 NMatS0=    1 NMatT0=    0 NMatD0=    1 NMtDS0=    0 NMtDT0=    0
         I1Cent=           4 NGrid=           0.
 Petite list used in FoFCou.
 Initial guess orbital symmetries:
       Occupied  (A) (A) (A) (A) (A) (A) (A) (A) (A) (A) (A) (A)
                 (A) (A) (A) (A) (A) (A) (A) (A) (A) (A) (A) (A)
                 (A) (A) (A) (A) (A) (A) (A) (A) (A) (A) (A) (A)
                 (A) (A) (A) (A) (A) (A) (A) (A)
       Virtual   (A) (A) (A) (A) (A) (A) (A) (A) (A) (A) (A) (A)
                 (A) (A) (A) (A) (A) (A) (A) (A) (A) (A) (A) (A)
                 (A) (A) (A) (A) (A) (A) (A) (A) (A) (A) (A) (A)
                 (A) (A) (A) (A) (A) (A) (A) (A) (A) (A) (A) (A)
                 (A) (A) (A) (A) (A) (A) (A) (A) (A) (A) (A) (A)
                 (A) (A) (A) (A) (A) (A) (A) (A) (A) (A) (A) (A)
                 (A) (A) (A) (A) (A) (A) (A) (A) (A) (A) (A) (A)
                 (A) (A) (A) (A) (A) (A) (A) (A) (A) (A) (A) (A)
                 (A) (A) (A) (A) (A) (A) (A) (A) (A) (A) (A) (A)
                 (A) (A) (A) (A) (A) (A) (A) (A) (A) (A) (A) (A)
                 (A) (A) (A) (A) (A) (A) (A) (A) (A) (A) (A) (A)
                 (A) (A) (A) (A) (A) (A) (A) (A) (A) (A) (A) (A)
                 (A) (A) (A) (A) (A) (A) (A) (A) (A) (A) (A) (A)
                 (A) (A) (A) (A) (A) (A) (A) (A) (A) (A) (A) (A)
                 (A) (A) (A) (A) (A) (A) (A) (A) (A) (A) (A) (A)
                 (A) (A) (A) (A) (A) (A) (A) (A) (A) (A) (A) (A)
                 (A) (A) (A) (A) (A) (A) (A) (A) (A) (A) (A)
 The electronic state of the initial guess is 1-A.
 Requested convergence on RMS density matrix=1.00D-08 within 128 cycles.
 Requested convergence on MAX density matrix=1.00D-06.
 Requested convergence on             energy=1.00D-06.
 No special actions if energy rises.
 EnCoef did     2 forward-backward iterations
 EnCoef did     4 forward-backward iterations
 SCF Done:  E(RB3LYP) =  -2913.99475267     A.U. after   18 cycles
             Convg  =    0.6395D-08             -V/T =  2.0020
 Range of M.O.s used for correlation:     1   247
 NBasis=   247 NAE=    44 NBE=    44 NFC=     0 NFV=     0
 NROrb=    247 NOA=    44 NOB=    44 NVA=   203 NVB=   203

 **** Warning!!: The largest alpha MO coefficient is  0.10026943D+03

 Symmetrizing basis deriv contribution to polar:
 IMax=3 JMax=2 DiffMx= 0.00D+00
 G2DrvN: will do    13 centers at a time, making    1 passes doing MaxLOS=2.
 Calling FoFCou, ICntrl=  3107 FMM=F I1Cent=   0 AccDes= 0.00D+00.
 FoFDir/FoFCou used for L=0 through L=2.
 End of G2Drv Frequency-dependent properties file   721 does not exist.
 End of G2Drv Frequency-dependent properties file   722 does not exist.
          IDoAtm=111111111111
          Differentiating once with respect to nuclear coordinates.
          There are    39 degrees of freedom in the 1st order CPHF.  IDoFFX=5.
     33 vectors produced by pass  0 Test12= 2.29D-10 2.56D-07 XBig12= 7.54D-01 2.81D-01.
 AX will form    33 AO Fock derivatives at one time.
     33 vectors produced by pass  1 Test12= 2.29D-10 2.56D-07 XBig12= 3.63D-01 2.55D-01.
     33 vectors produced by pass  2 Test12= 2.29D-10 2.56D-07 XBig12= 6.31D-03 1.27D-02.
     33 vectors produced by pass  3 Test12= 2.29D-10 2.56D-07 XBig12= 1.62D-04 1.44D-03.
     33 vectors produced by pass  4 Test12= 2.29D-10 2.56D-07 XBig12= 9.18D-07 1.56D-04.
     15 vectors produced by pass  5 Test12= 2.29D-10 2.56D-07 XBig12= 2.41D-09 7.84D-06.
      1 vectors produced by pass  6 Test12= 2.29D-10 2.56D-07 XBig12= 5.38D-12 2.83D-07.
 Inverted reduced A of dimension   181 with in-core refinement.
 End of Minotr Frequency-dependent properties file   721 does not exist.
 End of Minotr Frequency-dependent properties file   722 does not exist.

 **********************************************************************

            Population analysis using the SCF density.

 **********************************************************************

 Orbital symmetries:
       Occupied  (A) (A) (A) (A) (A) (A) (A) (A) (A) (A) (A) (A)
                 (A) (A) (A) (A) (A) (A) (A) (A) (A) (A) (A) (A)
                 (A) (A) (A) (A) (A) (A) (A) (A) (A) (A) (A) (A)
                 (A) (A) (A) (A) (A) (A) (A) (A)
       Virtual   (A) (A) (A) (A) (A) (A) (A) (A) (A) (A) (A) (A)
                 (A) (A) (A) (A) (A) (A) (A) (A) (A) (A) (A) (A)
                 (A) (A) (A) (A) (A) (A) (A) (A) (A) (A) (A) (A)
                 (A) (A) (A) (A) (A) (A) (A) (A) (A) (A) (A) (A)
                 (A) (A) (A) (A) (A) (A) (A) (A) (A) (A) (A) (A)
                 (A) (A) (A) (A) (A) (A) (A) (A) (A) (A) (A) (A)
                 (A) (A) (A) (A) (A) (A) (A) (A) (A) (A) (A) (A)
                 (A) (A) (A) (A) (A) (A) (A) (A) (A) (A) (A) (A)
                 (A) (A) (A) (A) (A) (A) (A) (A) (A) (A) (A) (A)
                 (A) (A) (A) (A) (A) (A) (A) (A) (A) (A) (A) (A)
                 (A) (A) (A) (A) (A) (A) (A) (A) (A) (A) (A) (A)
                 (A) (A) (A) (A) (A) (A) (A) (A) (A) (A) (A) (A)
                 (A) (A) (A) (A) (A) (A) (A) (A) (A) (A) (A) (A)
                 (A) (A) (A) (A) (A) (A) (A) (A) (A) (A) (A) (A)
                 (A) (A) (A) (A) (A) (A) (A) (A) (A) (A) (A) (A)
                 (A) (A) (A) (A) (A) (A) (A) (A) (A) (A) (A) (A)
                 (A) (A) (A) (A) (A) (A) (A) (A) (A) (A) (A)
 The electronic state is 1-A.
 Alpha  occ. eigenvalues -- -482.88588 -62.53695 -56.35395 -56.35060 -56.35045
 Alpha  occ. eigenvalues --  -14.52546 -14.50125 -10.27476 -10.26056 -10.23602
 Alpha  occ. eigenvalues --  -10.22220 -10.21334 -10.17563  -8.71759  -6.54731
 Alpha  occ. eigenvalues --   -6.53521  -6.53474  -2.65773  -2.65431  -2.65398
 Alpha  occ. eigenvalues --   -2.64432  -2.64431  -1.18915  -0.90074  -0.83113
 Alpha  occ. eigenvalues --   -0.77686  -0.76386  -0.67175  -0.63740  -0.57826
 Alpha  occ. eigenvalues --   -0.53650  -0.53295  -0.52307  -0.48754  -0.47423
 Alpha  occ. eigenvalues --   -0.45334  -0.41033  -0.40521  -0.37598  -0.33149
 Alpha  occ. eigenvalues --   -0.29691  -0.27393  -0.26278  -0.22103
 Alpha virt. eigenvalues --   -0.10842  -0.10318  -0.03752  -0.02437  -0.01432
 Alpha virt. eigenvalues --   -0.01025   0.00610   0.01230   0.02563   0.03559
 Alpha virt. eigenvalues --    0.04235   0.04559   0.05595   0.06597   0.07209
 Alpha virt. eigenvalues --    0.07405   0.07731   0.08278   0.09113   0.09747
 Alpha virt. eigenvalues --    0.10584   0.10858   0.11120   0.11623   0.11741
 Alpha virt. eigenvalues --    0.12248   0.12351   0.13564   0.13667   0.15710
 Alpha virt. eigenvalues --    0.16459   0.16920   0.17275   0.18053   0.18309
 Alpha virt. eigenvalues --    0.19519   0.19632   0.20653   0.21722   0.22632
 Alpha virt. eigenvalues --    0.22912   0.23765   0.24079   0.25168   0.25794
 Alpha virt. eigenvalues --    0.26747   0.26930   0.27164   0.28253   0.29023
 Alpha virt. eigenvalues --    0.29386   0.29966   0.31120   0.31577   0.32331
 Alpha virt. eigenvalues --    0.33531   0.35958   0.36448   0.38022   0.38319
 Alpha virt. eigenvalues --    0.39804   0.40409   0.41974   0.43362   0.44092
 Alpha virt. eigenvalues --    0.46103   0.46393   0.47259   0.47747   0.49843
 Alpha virt. eigenvalues --    0.51846   0.52094   0.53058   0.53776   0.53954
 Alpha virt. eigenvalues --    0.54280   0.55662   0.56405   0.56614   0.58061
 Alpha virt. eigenvalues --    0.58226   0.59161   0.60611   0.60813   0.62158
 Alpha virt. eigenvalues --    0.62467   0.62791   0.64157   0.65884   0.67682
 Alpha virt. eigenvalues --    0.70044   0.70478   0.71054   0.71182   0.71756
 Alpha virt. eigenvalues --    0.72955   0.73700   0.74148   0.74287   0.74751
 Alpha virt. eigenvalues --    0.76487   0.76965   0.76998   0.79155   0.79252
 Alpha virt. eigenvalues --    0.80882   0.81826   0.82449   0.84368   0.84963
 Alpha virt. eigenvalues --    0.87246   0.87913   0.88665   0.90592   0.94140
 Alpha virt. eigenvalues --    0.95566   0.97505   1.02843   1.03588   1.04738
 Alpha virt. eigenvalues --    1.05993   1.06097   1.07147   1.09465   1.09999
 Alpha virt. eigenvalues --    1.12631   1.14700   1.15987   1.19682   1.22555
 Alpha virt. eigenvalues --    1.24071   1.25576   1.27086   1.27299   1.30603
 Alpha virt. eigenvalues --    1.32311   1.34167   1.36255   1.38464   1.38537
 Alpha virt. eigenvalues --    1.42031   1.43449   1.43762   1.45202   1.45603
 Alpha virt. eigenvalues --    1.46239   1.48729   1.49939   1.53046   1.54180
 Alpha virt. eigenvalues --    1.56804   1.59016   1.61633   1.63656   1.65182
 Alpha virt. eigenvalues --    1.66174   1.68251   1.71662   1.73486   1.73527
 Alpha virt. eigenvalues --    1.76106   1.80283   1.85039   1.86578   1.89101
 Alpha virt. eigenvalues --    1.90546   1.91980   1.93321   1.95794   1.97158
 Alpha virt. eigenvalues --    1.99946   2.02788   2.03705   2.04112   2.04433
 Alpha virt. eigenvalues --    2.08593   2.14907   2.18590   2.19227   2.19387
 Alpha virt. eigenvalues --    2.24351   2.29558   2.29998   2.30328   2.34534
 Alpha virt. eigenvalues --    2.42295   2.45832   2.54158   2.56452   2.63369
 Alpha virt. eigenvalues --    2.65377   2.71871   2.77057   2.82724   2.84049
 Alpha virt. eigenvalues --    2.87036   2.98672   3.01629   3.07466   3.10459
 Alpha virt. eigenvalues --    3.26992   3.37083   3.69265
          Condensed to atoms (all electrons):
              1          2          3          4          5          6
     1  C    9.644584   0.111642  -0.054865  -1.702966  -1.380838  -0.830312
     2  C    0.111642  10.726419  -0.033693  -0.924349  -1.416190  -0.595286
     3  C   -0.054865  -0.033693  10.305473  -4.089640   0.426629  -1.989021
     4  C   -1.702966  -0.924349  -4.089640  16.407453  -3.637609   0.572037
     5  C   -1.380838  -1.416190   0.426629  -3.637609  14.561140  -2.472100
     6  C   -0.830312  -0.595286  -1.989021   0.572037  -2.472100  10.383864
     7  H   -0.643099  -0.328486  -0.060042   0.041448   0.161223   0.144218
     8  H    0.151860   0.027888   1.280663  -2.205245   0.775664  -0.631024
     9  H    0.253562   0.054302  -0.620409   0.505358  -1.856955   0.954007
    10  N   -0.019663  -0.251452   0.058101   0.307186  -0.160375   0.026485
    11  N   -0.036262   0.158789  -0.198432  -0.200479  -0.019797   0.017246
    12  Br  -0.053113  -0.021853   0.073390  -0.089629   0.069500   0.014887
              7          8          9         10         11         12
     1  C   -0.643099   0.151860   0.253562  -0.019663  -0.036262  -0.053113
     2  C   -0.328486   0.027888   0.054302  -0.251452   0.158789  -0.021853
     3  C   -0.060042   1.280663  -0.620409   0.058101  -0.198432   0.073390
     4  C    0.041448  -2.205245   0.505358   0.307186  -0.200479  -0.089629
     5  C    0.161223   0.775664  -1.856955  -0.160375  -0.019797   0.069500
     6  C    0.144218  -0.631024   0.954007   0.026485   0.017246   0.014887
     7  H    2.419899   0.008110  -0.015506  -0.007446   0.006049  -0.074450
     8  H    0.008110   2.691365  -0.226752  -0.102664  -0.004606   0.003949
     9  H   -0.015506  -0.226752   2.798629  -0.005976  -0.001892  -0.075553
    10  N   -0.007446  -0.102664  -0.005976   8.082322  -1.376868  -0.001145
    11  N    0.006049  -0.004606  -0.001892  -1.376868   9.347964  -0.000313
    12  Br  -0.074450   0.003949  -0.075553  -0.001145  -0.000313  35.055211
 Mulliken atomic charges:
              1
     1  C    0.559471
     2  C   -1.507731
     3  C    0.901846
     4  C    1.016435
     5  C    0.949707
     6  C    0.404999
     7  H   -0.651917
     8  H   -0.769208
     9  H   -0.762814
    10  N    0.451495
    11  N   -0.691399
    12  Br   0.099118
 Sum of Mulliken atomic charges =   0.00000
 Mulliken charges with hydrogens summed into heavy atoms:
              1
     1  C   -0.092446
     2  C   -1.507731
     3  C    0.901846
     4  C    0.247226
     5  C    0.186893
     6  C    0.404999
    10  N    0.451495
    11  N   -0.691399
    12  Br   0.099118
 Sum of Mulliken charges with hydrogens summed into heavy atoms =   0.00000
 APT atomic charges:
              1
     1  C   -0.348948
     2  C   -0.075602
     3  C    0.243587
     4  C    0.464564
     5  C   -0.013225
     6  C    0.638988
     7  H   -0.123854
     8  H   -0.262246
     9  H   -0.158179
    10  N   -1.813437
    11  N    1.354501
    12  Br   0.093852
 Sum of APT charges=   0.00000
 APT Atomic charges with hydrogens summed into heavy atoms:
              1
     1  C   -0.472802
     2  C   -0.075602
     3  C    0.243587
     4  C    0.202318
     5  C   -0.171405
     6  C    0.638988
     7  H    0.000000
     8  H    0.000000
     9  H    0.000000
    10  N   -1.813437
    11  N    1.354501
    12  Br   0.093852
 Sum of APT charges=   0.00000
 Electronic spatial extent (au):  <R**2>=           2203.0326
 Charge=              0.0000 electrons
 Dipole moment (field-independent basis, Debye):
    X=              2.5900    Y=              3.0444    Z=              0.0000  Tot=              3.9970
 Quadrupole moment (field-independent basis, Debye-Ang):
   XX=            -56.7097   YY=            -63.7046   ZZ=            -66.0007
   XY=              6.7564   XZ=              0.0000   YZ=              0.0000
 Traceless Quadrupole moment (field-independent basis, Debye-Ang):
   XX=              5.4287   YY=             -1.5663   ZZ=             -3.8624
   XY=              6.7564   XZ=              0.0000   YZ=              0.0000
 Octapole moment (field-independent basis, Debye-Ang**2):
  XXX=            -40.3383  YYY=             17.6112  ZZZ=             -0.0003  XYY=            -30.1134
  XXY=             16.0816  XXZ=             -0.0003  XZZ=            -22.5434  YZZ=              0.4358
  YYZ=              0.0000  XYZ=              0.0001
 Hexadecapole moment (field-independent basis, Debye-Ang**3):
 XXXX=          -2079.0408 YYYY=           -335.2031 ZZZZ=            -77.4918 XXXY=             49.9297
 XXXZ=              0.0001 YYYX=             40.3772 YYYZ=              0.0000 ZZZX=              0.0001
 ZZZY=              0.0000 XXYY=           -433.7689 XXZZ=           -379.1653 YYZZ=            -75.8372
 XXYZ=              0.0002 YYXZ=              0.0001 ZZXY=              2.9623
 N-N= 5.558540624885D+02 E-N=-8.052005073751D+03  KE= 2.908128277055D+03
  Exact polarizability:   0.000   0.000   0.000   0.000   0.000   0.000
 Approx polarizability: 328.536  14.568 196.500  -0.001   0.000 101.204
 Calling FoFJK, ICntrl=    100147 FMM=F ISym2X=0 I1Cent= 0 IOpClX= 0 NMat=1 NMatS=1 NMatT=0.
 ***** Axes restored to original set *****
 -------------------------------------------------------------------
 Center     Atomic                   Forces (Hartrees/Bohr)
 Number     Number              X              Y              Z
 -------------------------------------------------------------------
      1        6           0.000181999   -0.000475840   -0.000096408
      2        6          -0.000314796    0.001054938    0.000207907
      3        6           0.001141876   -0.001214962   -0.000284688
      4        6           0.000335961    0.000132860    0.000004633
      5        6          -0.000057081   -0.000205218   -0.000034083
      6        6          -0.000113543    0.000241790    0.000050275
      7        1          -0.000056842   -0.000045601   -0.000004873
      8        1          -0.000014802   -0.000002297    0.000000210
      9        1          -0.000048939    0.000056742    0.000013286
     10        7          -0.001308571    0.001248095    0.000300624
     11        7           0.000059878   -0.000817326   -0.000150547
     12       35           0.000194861    0.000026819   -0.000006335
 -------------------------------------------------------------------
 Cartesian Forces:  Max     0.001308571 RMS     0.000492750

 GradGradGradGradGradGradGradGradGradGradGradGradGradGradGradGradGradGrad
 Berny optimization.
 Internal  Forces:  Max     0.001714309 RMS     0.000323816
 Search for a saddle point.
 Step number   1 out of a maximum of   61
 All quantities printed in internal units (Hartrees-Bohrs-Radians)
 Swaping is turned off.
 Second derivative matrix not updated -- analytic derivatives used.
 ITU=  0
     Eigenvalues ---   -0.07385   0.00117   0.01166   0.01676   0.01735
     Eigenvalues ---    0.02141   0.02819   0.03095   0.03279   0.03757
     Eigenvalues ---    0.06227   0.10311   0.11360   0.11946   0.13228
     Eigenvalues ---    0.14976   0.16396   0.18445   0.20459   0.23479
     Eigenvalues ---    0.29250   0.35089   0.35738   0.36656   0.39405
     Eigenvalues ---    0.40687   0.45628   0.49257   0.53788   1.42188
 Eigenvectors required to have negative eigenvalues:
                          R6        A17       R4        A7        R5
   1                    0.89127  -0.33554  -0.20634  -0.11851  -0.07634
                          A1        A5        A8        A4        A6
   1                   -0.07586   0.06984  -0.06653   0.06396   0.04867
 RFO step:  Lambda0=2.721178969D-07 Lambda=-6.82886864D-05.
 Linear search not attempted -- option 19 set.
 Iteration  1 RMS(Cart)=  0.00763487 RMS(Int)=  0.00010884
 Iteration  2 RMS(Cart)=  0.00010826 RMS(Int)=  0.00000103
 Iteration  3 RMS(Cart)=  0.00000001 RMS(Int)=  0.00000103
 Variable       Old X    -DE/DX   Delta X   Delta X   Delta X     New X
                                 (Linear)    (Quad)   (Total)
    R1        2.67932  -0.00015   0.00000  -0.00196  -0.00196   2.67736
    R2        2.64314   0.00011   0.00000   0.00074   0.00074   2.64388
    R3        2.06342   0.00006   0.00000   0.00003   0.00003   2.06345
    R4        2.52743  -0.00073   0.00000  -0.00286  -0.00286   2.52458
    R5        2.63364  -0.00010   0.00000   0.00029   0.00029   2.63393
    R6        3.06476  -0.00113   0.00000  -0.00989  -0.00989   3.05487
    R7        2.62945   0.00013   0.00000   0.00021   0.00021   2.62966
    R8        2.06080  -0.00001   0.00000   0.00013   0.00013   2.06094
    R9        2.66875  -0.00005   0.00000  -0.00015  -0.00015   2.66860
   R10        2.05501   0.00008   0.00000   0.00023   0.00023   2.05524
   R11        3.64107  -0.00020   0.00000  -0.00099  -0.00099   3.64008
   R12        2.10177   0.00014   0.00000   0.00119   0.00119   2.10295
    A1        2.09067  -0.00034   0.00000  -0.00382  -0.00382   2.08684
    A2        2.11648   0.00020   0.00000   0.00271   0.00271   2.11919
    A3        2.07604   0.00013   0.00000   0.00111   0.00111   2.07715
    A4        1.94535   0.00040   0.00000   0.00651   0.00651   1.95187
    A5        2.34272   0.00003   0.00000  -0.00446  -0.00446   2.33826
    A6        1.96293   0.00022   0.00000   0.00303   0.00303   1.96597
    A7        1.97753  -0.00025   0.00000   0.00143   0.00143   1.97896
    A8        1.96587  -0.00013   0.00000   0.00082   0.00082   1.96669
    A9        2.17455   0.00008   0.00000  -0.00071  -0.00071   2.17384
   A10        2.14277   0.00005   0.00000  -0.00011  -0.00011   2.14266
   A11        2.06828   0.00002   0.00000   0.00063   0.00063   2.06890
   A12        2.10915  -0.00001   0.00000   0.00008   0.00008   2.10924
   A13        2.10576  -0.00001   0.00000  -0.00071  -0.00071   2.10504
   A14        2.15348   0.00002   0.00000   0.00033   0.00033   2.15381
   A15        2.08067  -0.00005   0.00000  -0.00057  -0.00056   2.08011
   A16        2.04904   0.00003   0.00000   0.00023   0.00023   2.04927
   A17        2.83138  -0.00171   0.00000  -0.02878  -0.02878   2.80260
    D1        0.00001   0.00000   0.00000  -0.00001  -0.00001   0.00000
    D2       -3.14159   0.00000   0.00000   0.00000   0.00000  -3.14159
    D3       -0.00001   0.00000   0.00000   0.00001   0.00001   0.00000
    D4        3.14158   0.00000   0.00000   0.00001   0.00001   3.14159
    D5        3.14159   0.00000   0.00000   0.00001   0.00001  -3.14159
    D6       -0.00001   0.00000   0.00000   0.00001   0.00001   0.00000
    D7        0.00000   0.00000   0.00000   0.00000   0.00000   0.00000
    D8       -3.14159   0.00000   0.00000  -0.00001  -0.00001   3.14159
    D9        0.00000   0.00000   0.00000   0.00000   0.00000   0.00000
   D10        3.14159   0.00000   0.00000   0.00001   0.00001  -3.14159
   D11        3.14158   0.00000   0.00000   0.00001   0.00001  -3.14159
   D12       -0.00002   0.00000   0.00000   0.00002   0.00002   0.00000
   D13       -0.00005   0.00000   0.00000   0.00005   0.00005   0.00000
   D14        3.14155   0.00000   0.00000   0.00004   0.00004   3.14159
   D15        0.00000   0.00000   0.00000   0.00000   0.00000   0.00000
   D16       -3.14159   0.00000   0.00000  -0.00001  -0.00001   3.14159
   D17       -3.14159   0.00000   0.00000   0.00000   0.00000  -3.14159
   D18        0.00001   0.00000   0.00000  -0.00001  -0.00001   0.00000
   D19        0.00001   0.00000   0.00000  -0.00001  -0.00001   0.00000
   D20       -3.14158   0.00000   0.00000  -0.00001  -0.00001  -3.14159
   D21       -3.14159   0.00000   0.00000   0.00000   0.00000   3.14159
   D22        0.00000   0.00000   0.00000   0.00000   0.00000   0.00000
         Item               Value     Threshold  Converged?
 Maximum Force            0.001714     0.000450     NO 
 RMS     Force            0.000324     0.000300     NO 
 Maximum Displacement     0.043251     0.001800     NO 
 RMS     Displacement     0.007662     0.001200     NO 
 Predicted change in Energy=-3.404372D-05
 GradGradGradGradGradGradGradGradGradGradGradGradGradGradGradGradGradGrad

                          Input orientation:                          
 ---------------------------------------------------------------------
 Center     Atomic      Atomic             Coordinates (Angstroms)
 Number     Number       Type             X           Y           Z
 ---------------------------------------------------------------------
      1          6           0       -1.374761   -1.511765   -1.071825
      2          6           0        0.011995   -1.222951   -1.100172
      3          6           0        0.254292    0.072493   -0.881361
      4          6           0       -0.554996    1.180319   -0.635413
      5          6           0       -1.909353    0.861416   -0.614350
      6          6           0       -2.289951   -0.480710   -0.833547
      7          1           0       -1.748573   -2.525087   -1.232318
      8          1           0       -0.184611    2.193440   -0.474758
      9          1           0       -2.659921    1.627373   -0.433246
     10          7           0        1.831942    0.423947   -0.909496
     11          7           0        2.934099    0.296873   -0.996119
     12         35           0       -4.172762   -0.885866   -0.797403
 ---------------------------------------------------------------------
                    Distance matrix (angstroms):
                    1          2          3          4          5
     1  C    0.000000
     2  C    1.416796   0.000000
     3  C    2.280343   1.335949   0.000000
     4  C    2.847769   2.512605   1.393813   0.000000
     5  C    2.475290   2.876141   2.318416   1.391556   0.000000
     6  C    1.399079   2.433303   2.604129   2.410051   1.412163
     7  H    1.091931   2.193769   3.298797   3.938395   3.446177
     8  H    3.937194   3.478724   2.203719   1.090600   2.183692
     9  H    3.451609   3.963366   3.333331   2.161352   1.087585
    10  N    3.749171   2.461877   1.616568   2.518868   3.778331
    11  N    4.673669   3.295358   2.691632   3.617232   4.891165
    12  Br   2.880254   4.209214   4.530376   4.169363   2.865226
                    6          7          8          9         10
     6  C    0.000000
     7  H    2.152111   0.000000
     8  H    3.422318   5.028356   0.000000
     9  H    2.177414   4.325736   2.539550   0.000000
    10  N    4.220684   4.649850   2.717828   4.674600   0.000000
    11  N    5.284105   5.472355   3.687159   5.777554   1.112835
    12  Br   1.926249   2.958528   5.048917   2.955954   6.146922
                   11         12
    11  N    0.000000
    12  Br   7.207346   0.000000
 Stoichiometry    C6H3BrN2
 Framework group  C1[X(C6H3BrN2)]
 Deg. of freedom    30
 Full point group                 C1      NOp   1
 Largest Abelian subgroup         C1      NOp   1
 Largest concise Abelian subgroup C1      NOp   1
                         Standard orientation:                         
 ---------------------------------------------------------------------
 Center     Atomic      Atomic             Coordinates (Angstroms)
 Number     Number       Type             X           Y           Z
 ---------------------------------------------------------------------
      1          6           0       -0.127791   -1.225203    0.000000
      2          6           0       -1.544550   -1.214954    0.000000
      3          6           0       -2.032425    0.028725    0.000000
      4          6           0       -1.452025    1.295947    0.000000
      5          6           0       -0.061255    1.249193    0.000000
      6          6           0        0.571364   -0.013343    0.000000
      7          1           0        0.434695   -2.161110    0.000000
      8          1           0       -2.011109    2.232341    0.000000
      9          1           0        0.527512    2.163630    0.000000
     10          7           0       -3.648626    0.063210    0.000000
     11          7           0       -4.705785   -0.284375   -0.000001
     12         35           0        2.497425   -0.040254    0.000000
 ---------------------------------------------------------------------
 Rotational constants (GHZ):      5.5946938      0.4602870      0.4252969
 Standard basis: Aug-CC-pVDZ (5D, 7F)
 There are   247 symmetry adapted basis functions of A   symmetry.
 Integral buffers will be    131072 words long.
 Raffenetti 2 integral format.
 Two-electron integral symmetry is turned on.
   247 basis functions,   534 primitive gaussians,   266 cartesian basis functions
    44 alpha electrons       44 beta electrons
       nuclear repulsion energy       556.1303350282 Hartrees.
 NAtoms=   12 NActive=   12 NUniq=   12 SFac= 1.00D+00 NAtFMM=   50 NAOKFM=F Big=F
 One-electron integrals computed using PRISM.
 NBasis=   247 RedAO= T  NBF=   247
 NBsUse=   247 1.00D-06 NBFU=   247
 Initial guess read from the read-write file.
 B after Tr=     0.000000    0.000000    0.000000
         Rot=    1.000000    0.000000    0.000000    0.000000 Ang=   0.00 deg.
 Initial guess orbital symmetries:
       Occupied  (A) (A) (A) (A) (A) (A) (A) (A) (A) (A) (A) (A)
                 (A) (A) (A) (A) (A) (A) (A) (A) (A) (A) (A) (A)
                 (A) (A) (A) (A) (A) (A) (A) (A) (A) (A) (A) (A)
                 (A) (A) (A) (A) (A) (A) (A) (A)
       Virtual   (A) (A) (A) (A) (A) (A) (A) (A) (A) (A) (A) (A)
                 (A) (A) (A) (A) (A) (A) (A) (A) (A) (A) (A) (A)
                 (A) (A) (A) (A) (A) (A) (A) (A) (A) (A) (A) (A)
                 (A) (A) (A) (A) (A) (A) (A) (A) (A) (A) (A) (A)
                 (A) (A) (A) (A) (A) (A) (A) (A) (A) (A) (A) (A)
                 (A) (A) (A) (A) (A) (A) (A) (A) (A) (A) (A) (A)
                 (A) (A) (A) (A) (A) (A) (A) (A) (A) (A) (A) (A)
                 (A) (A) (A) (A) (A) (A) (A) (A) (A) (A) (A) (A)
                 (A) (A) (A) (A) (A) (A) (A) (A) (A) (A) (A) (A)
                 (A) (A) (A) (A) (A) (A) (A) (A) (A) (A) (A) (A)
                 (A) (A) (A) (A) (A) (A) (A) (A) (A) (A) (A) (A)
                 (A) (A) (A) (A) (A) (A) (A) (A) (A) (A) (A) (A)
                 (A) (A) (A) (A) (A) (A) (A) (A) (A) (A) (A) (A)
                 (A) (A) (A) (A) (A) (A) (A) (A) (A) (A) (A) (A)
                 (A) (A) (A) (A) (A) (A) (A) (A) (A) (A) (A) (A)
                 (A) (A) (A) (A) (A) (A) (A) (A) (A) (A) (A) (A)
                 (A) (A) (A) (A) (A) (A) (A) (A) (A) (A) (A)
 Harris functional with IExCor=  402 diagonalized for initial guess.
 ExpMin= 2.97D-02 ExpMax= 6.40D+05 ExpMxC= 6.18D+03 IAcc=3 IRadAn=         0 AccDes= 0.00D+00
 HarFok:  IExCor=  402 AccDes= 0.00D+00 IRadAn=         0 IDoV= 1
 ScaDFX=  1.000000  1.000000  1.000000  1.000000
 FoFCou: FMM=F IPFlag=           0 FMFlag=      100000 FMFlg1=           0
         NFxFlg=           0 DoJE=T BraDBF=F KetDBF=T FulRan=T
         Omega=  0.000000  0.000000  1.000000  0.000000  0.000000 ICntrl=     500 IOpCl=  0
         NMat0=    1 NMatS0=    1 NMatT0=    0 NMatD0=    1 NMtDS0=    0 NMtDT0=    0
         I1Cent=           4 NGrid=           0.
 Petite list used in FoFCou.
 Requested convergence on RMS density matrix=1.00D-08 within 128 cycles.
 Requested convergence on MAX density matrix=1.00D-06.
 Requested convergence on             energy=1.00D-06.
 No special actions if energy rises.
 SCF Done:  E(RB3LYP) =  -2913.99478593     A.U. after   18 cycles
             Convg  =    0.7069D-08             -V/T =  2.0020
 Calling FoFJK, ICntrl=      2127 FMM=F ISym2X=0 I1Cent= 0 IOpClX= 0 NMat=1 NMatS=1 NMatT=0.
 ***** Axes restored to original set *****
 -------------------------------------------------------------------
 Center     Atomic                   Forces (Hartrees/Bohr)
 Number     Number              X              Y              Z
 -------------------------------------------------------------------
      1        6           0.000000298   -0.000006261   -0.000001156
      2        6          -0.000040040    0.000009749    0.000004093
      3        6          -0.000039633   -0.000032784   -0.000003617
      4        6           0.000009653    0.000000076   -0.000000527
      5        6          -0.000002099   -0.000002803   -0.000000390
      6        6          -0.000002434    0.000006858    0.000001374
      7        1          -0.000004340    0.000001528    0.000000524
      8        1           0.000003137   -0.000000710   -0.000000310
      9        1           0.000002588    0.000002801    0.000000353
     10        7           0.000031013   -0.000003486   -0.000002421
     11        7           0.000043103    0.000020828    0.000001246
     12       35          -0.000001245    0.000004204    0.000000831
 -------------------------------------------------------------------
 Cartesian Forces:  Max     0.000043103 RMS     0.000014827

 GradGradGradGradGradGradGradGradGradGradGradGradGradGradGradGradGradGrad
 Berny optimization.
 Internal  Forces:  Max     0.000077110 RMS     0.000018414
 Search for a saddle point.
 Step number   2 out of a maximum of   61
 All quantities printed in internal units (Hartrees-Bohrs-Radians)
 Swaping is turned off.
 Update second derivatives using D2CorX and points    1    2
 ITU=  0  0
     Eigenvalues ---   -0.07366   0.00117   0.01166   0.01676   0.01735
     Eigenvalues ---    0.02141   0.02819   0.03095   0.03279   0.03757
     Eigenvalues ---    0.06477   0.10311   0.11360   0.11948   0.13233
     Eigenvalues ---    0.14998   0.16434   0.18446   0.20460   0.23486
     Eigenvalues ---    0.29250   0.35089   0.35738   0.36656   0.39410
     Eigenvalues ---    0.40688   0.45628   0.49257   0.53798   1.42211
 Eigenvectors required to have negative eigenvalues:
                          R6        A17       R4        A7        A1
   1                    0.88720  -0.34631  -0.20674  -0.11678  -0.07672
                          R5        A5        A8        A4        A6
   1                   -0.07624   0.06844  -0.06631   0.06578   0.04835
 RFO step:  Lambda0=3.612051486D-08 Lambda=-1.28307778D-07.
 Linear search not attempted -- option 19 set.
 Iteration  1 RMS(Cart)=  0.00045422 RMS(Int)=  0.00000032
 Iteration  2 RMS(Cart)=  0.00000031 RMS(Int)=  0.00000000
 Variable       Old X    -DE/DX   Delta X   Delta X   Delta X     New X
                                 (Linear)    (Quad)   (Total)
    R1        2.67736   0.00000   0.00000   0.00002   0.00002   2.67737
    R2        2.64388   0.00000   0.00000  -0.00001  -0.00001   2.64387
    R3        2.06345   0.00000   0.00000   0.00000   0.00000   2.06345
    R4        2.52458   0.00000   0.00000   0.00015   0.00015   2.52472
    R5        2.63393   0.00000   0.00000   0.00006   0.00006   2.63398
    R6        3.05487   0.00008   0.00000  -0.00023  -0.00023   3.05464
    R7        2.62966   0.00001   0.00000  -0.00002  -0.00002   2.62964
    R8        2.06094   0.00000   0.00000   0.00000   0.00000   2.06094
    R9        2.66860   0.00000   0.00000   0.00000   0.00000   2.66860
   R10        2.05524   0.00000   0.00000   0.00000   0.00000   2.05524
   R11        3.64008   0.00000   0.00000   0.00000   0.00000   3.64008
   R12        2.10295   0.00004   0.00000   0.00000   0.00000   2.10295
    A1        2.08684   0.00000   0.00000   0.00009   0.00009   2.08694
    A2        2.11919   0.00000   0.00000  -0.00006  -0.00006   2.11913
    A3        2.07715   0.00000   0.00000  -0.00004  -0.00004   2.07711
    A4        1.95187   0.00002   0.00000  -0.00009  -0.00009   1.95178
    A5        2.33826  -0.00002   0.00000  -0.00003  -0.00003   2.33823
    A6        1.96597   0.00006   0.00000   0.00024   0.00024   1.96620
    A7        1.97896  -0.00004   0.00000  -0.00021  -0.00021   1.97875
    A8        1.96669   0.00001   0.00000   0.00005   0.00005   1.96674
    A9        2.17384   0.00000   0.00000  -0.00002  -0.00002   2.17383
   A10        2.14266   0.00000   0.00000  -0.00003  -0.00003   2.14262
   A11        2.06890   0.00000   0.00000  -0.00002  -0.00002   2.06888
   A12        2.10924   0.00000   0.00000   0.00000   0.00000   2.10924
   A13        2.10504   0.00000   0.00000   0.00002   0.00002   2.10506
   A14        2.15381   0.00000   0.00000  -0.00001  -0.00001   2.15380
   A15        2.08011   0.00000   0.00000   0.00002   0.00002   2.08012
   A16        2.04927   0.00000   0.00000  -0.00001  -0.00001   2.04926
   A17        2.80260   0.00007   0.00000   0.00136   0.00136   2.80396
    D1        0.00000   0.00000   0.00000   0.00000   0.00000   0.00000
    D2       -3.14159   0.00000   0.00000   0.00000   0.00000  -3.14159
    D3        0.00000   0.00000   0.00000   0.00000   0.00000   0.00000
    D4        3.14159   0.00000   0.00000   0.00000   0.00000   3.14159
    D5       -3.14159   0.00000   0.00000   0.00000   0.00000   3.14159
    D6        0.00000   0.00000   0.00000   0.00000   0.00000   0.00000
    D7        0.00000   0.00000   0.00000   0.00000   0.00000   0.00000
    D8        3.14159   0.00000   0.00000   0.00000   0.00000   3.14159
    D9        0.00000   0.00000   0.00000   0.00000   0.00000   0.00000
   D10       -3.14159   0.00000   0.00000   0.00000   0.00000  -3.14159
   D11       -3.14159   0.00000   0.00000   0.00000   0.00000  -3.14159
   D12        0.00000   0.00000   0.00000   0.00000   0.00000   0.00000
   D13        0.00000   0.00000   0.00000   0.00000   0.00000   0.00000
   D14        3.14159   0.00000   0.00000   0.00000   0.00000  -3.14159
   D15        0.00000   0.00000   0.00000   0.00000   0.00000   0.00000
   D16        3.14159   0.00000   0.00000   0.00000   0.00000   3.14159
   D17       -3.14159   0.00000   0.00000   0.00000   0.00000   3.14159
   D18        0.00000   0.00000   0.00000   0.00000   0.00000   0.00000
   D19        0.00000   0.00000   0.00000   0.00000   0.00000   0.00000
   D20       -3.14159   0.00000   0.00000   0.00000   0.00000   3.14159
   D21       -3.14159   0.00000   0.00000   0.00000   0.00000   3.14159
   D22        0.00000   0.00000   0.00000   0.00000   0.00000   0.00000
         Item               Value     Threshold  Converged?
 Maximum Force            0.000077     0.000450     YES
 RMS     Force            0.000018     0.000300     YES
 Maximum Displacement     0.002604     0.001800     NO 
 RMS     Displacement     0.000454     0.001200     YES
 Predicted change in Energy=-4.609362D-08
 GradGradGradGradGradGradGradGradGradGradGradGradGradGradGradGradGradGrad

                          Input orientation:                          
 ---------------------------------------------------------------------
 Center     Atomic      Atomic             Coordinates (Angstroms)
 Number     Number       Type             X           Y           Z
 ---------------------------------------------------------------------
      1          6           0       -1.374956   -1.511872   -1.071833
      2          6           0        0.011870   -1.223352   -1.100236
      3          6           0        0.254350    0.072137   -0.881428
      4          6           0       -0.554840    1.180070   -0.635467
      5          6           0       -1.909233    0.861372   -0.614365
      6          6           0       -2.290011   -0.480707   -0.833543
      7          1           0       -1.748935   -2.525137   -1.232306
      8          1           0       -0.184334    2.193150   -0.474826
      9          1           0       -2.659684    1.627440   -0.433247
     10          7           0        1.831845    0.423729   -0.909529
     11          7           0        2.934206    0.298251   -0.995879
     12         35           0       -4.172877   -0.885602   -0.797349
 ---------------------------------------------------------------------
                    Distance matrix (angstroms):
                    1          2          3          4          5
     1  C    0.000000
     2  C    1.416805   0.000000
     3  C    2.280346   1.336027   0.000000
     4  C    2.847729   2.512690   1.393843   0.000000
     5  C    2.475281   2.876245   2.318471   1.391545   0.000000
     6  C    1.399074   2.433372   2.604170   2.410028   1.412163
     7  H    1.091933   2.193745   3.298803   3.938355   3.446156
     8  H    3.937154   3.478810   2.203738   1.090601   2.183662
     9  H    3.451608   3.963470   3.333380   2.161343   1.087585
    10  N    3.749196   2.462023   1.616446   2.518616   3.778137
    11  N    4.674526   3.296394   2.691813   3.616758   4.890967
    12  Br   2.880264   4.209266   4.530416   4.169341   2.865220
                    6          7          8          9         10
     6  C    0.000000
     7  H    2.152085   0.000000
     8  H    3.422289   5.028318   0.000000
     9  H    2.177425   4.325720   2.539510   0.000000
    10  N    4.220601   4.649944   2.717498   4.674355   0.000000
    11  N    5.284465   5.473502   3.686113   5.777101   1.112834
    12  Br   1.926249   2.958506   5.048882   2.955961   6.146838
                   11         12
    11  N    0.000000
    12  Br   7.207742   0.000000
 Stoichiometry    C6H3BrN2
 Framework group  C1[X(C6H3BrN2)]
 Deg. of freedom    30
 Full point group                 C1      NOp   1
 Largest Abelian subgroup         C1      NOp   1
 Largest concise Abelian subgroup C1      NOp   1
                         Standard orientation:                         
 ---------------------------------------------------------------------
 Center     Atomic      Atomic             Coordinates (Angstroms)
 Number     Number       Type             X           Y           Z
 ---------------------------------------------------------------------
      1          6           0        0.127580   -1.225397    0.000000
      2          6           0        1.544350   -1.215484    0.000000
      3          6           0        2.032438    0.028195    0.000000
      4          6           0        1.452179    1.295515    0.000000
      5          6           0        0.061412    1.249000    0.000000
      6          6           0       -0.571399   -0.013441    0.000000
      7          1           0       -0.435077   -2.161204    0.000000
      8          1           0        2.011391    2.231833    0.000000
      9          1           0       -0.527201    2.163535    0.000000
     10          7           0        3.648513    0.062818    0.000000
     11          7           0        4.706174   -0.283236    0.000000
     12         35           0       -2.497465   -0.040045    0.000000
 ---------------------------------------------------------------------
 Rotational constants (GHZ):      5.5954209      0.4602639      0.4252814
 Standard basis: Aug-CC-pVDZ (5D, 7F)
 There are   247 symmetry adapted basis functions of A   symmetry.
 Integral buffers will be    131072 words long.
 Raffenetti 2 integral format.
 Two-electron integral symmetry is turned on.
   247 basis functions,   534 primitive gaussians,   266 cartesian basis functions
    44 alpha electrons       44 beta electrons
       nuclear repulsion energy       556.1266557427 Hartrees.
 NAtoms=   12 NActive=   12 NUniq=   12 SFac= 1.00D+00 NAtFMM=   50 NAOKFM=F Big=F
 One-electron integrals computed using PRISM.
 NBasis=   247 RedAO= T  NBF=   247
 NBsUse=   247 1.00D-06 NBFU=   247
 Initial guess read from the read-write file.
 B after Tr=     0.000000    0.000000    0.000000
         Rot=    1.000000    0.000000    0.000000    0.000000 Ang=   0.00 deg.
 Initial guess orbital symmetries:
       Occupied  (A) (A) (A) (A) (A) (A) (A) (A) (A) (A) (A) (A)
                 (A) (A) (A) (A) (A) (A) (A) (A) (A) (A) (A) (A)
                 (A) (A) (A) (A) (A) (A) (A) (A) (A) (A) (A) (A)
                 (A) (A) (A) (A) (A) (A) (A) (A)
       Virtual   (A) (A) (A) (A) (A) (A) (A) (A) (A) (A) (A) (A)
                 (A) (A) (A) (A) (A) (A) (A) (A) (A) (A) (A) (A)
                 (A) (A) (A) (A) (A) (A) (A) (A) (A) (A) (A) (A)
                 (A) (A) (A) (A) (A) (A) (A) (A) (A) (A) (A) (A)
                 (A) (A) (A) (A) (A) (A) (A) (A) (A) (A) (A) (A)
                 (A) (A) (A) (A) (A) (A) (A) (A) (A) (A) (A) (A)
                 (A) (A) (A) (A) (A) (A) (A) (A) (A) (A) (A) (A)
                 (A) (A) (A) (A) (A) (A) (A) (A) (A) (A) (A) (A)
                 (A) (A) (A) (A) (A) (A) (A) (A) (A) (A) (A) (A)
                 (A) (A) (A) (A) (A) (A) (A) (A) (A) (A) (A) (A)
                 (A) (A) (A) (A) (A) (A) (A) (A) (A) (A) (A) (A)
                 (A) (A) (A) (A) (A) (A) (A) (A) (A) (A) (A) (A)
                 (A) (A) (A) (A) (A) (A) (A) (A) (A) (A) (A) (A)
                 (A) (A) (A) (A) (A) (A) (A) (A) (A) (A) (A) (A)
                 (A) (A) (A) (A) (A) (A) (A) (A) (A) (A) (A) (A)
                 (A) (A) (A) (A) (A) (A) (A) (A) (A) (A) (A) (A)
                 (A) (A) (A) (A) (A) (A) (A) (A) (A) (A) (A)
 Requested convergence on RMS density matrix=1.00D-08 within 128 cycles.
 Requested convergence on MAX density matrix=1.00D-06.
 Requested convergence on             energy=1.00D-06.
 No special actions if energy rises.
 SCF Done:  E(RB3LYP) =  -2913.99478598     A.U. after   19 cycles
             Convg  =    0.6869D-08             -V/T =  2.0020
 Calling FoFJK, ICntrl=      2127 FMM=F ISym2X=0 I1Cent= 0 IOpClX= 0 NMat=1 NMatS=1 NMatT=0.
 ***** Axes restored to original set *****
 -------------------------------------------------------------------
 Center     Atomic                   Forces (Hartrees/Bohr)
 Number     Number              X              Y              Z
 -------------------------------------------------------------------
      1        6          -0.000002070    0.000000906    0.000000283
      2        6           0.000000286   -0.000001223   -0.000000236
      3        6          -0.000000718   -0.000000600   -0.000000066
      4        6           0.000001275   -0.000000565   -0.000000175
      5        6           0.000001239    0.000001714    0.000000236
      6        6          -0.000000634    0.000001977    0.000000392
      7        1          -0.000003541    0.000001219    0.000000424
      8        1           0.000003196   -0.000000834   -0.000000335
      9        1           0.000002303    0.000002555    0.000000326
     10        7          -0.000000068   -0.000003001   -0.000000535
     11        7          -0.000000089   -0.000006754   -0.000001209
     12       35          -0.000001180    0.000004606    0.000000896
 -------------------------------------------------------------------
 Cartesian Forces:  Max     0.000006754 RMS     0.000001941

 GradGradGradGradGradGradGradGradGradGradGradGradGradGradGradGradGradGrad
 Berny optimization.
 Internal  Forces:  Max     0.000003446 RMS     0.000000787
 Search for a saddle point.
 Step number   3 out of a maximum of   61
 All quantities printed in internal units (Hartrees-Bohrs-Radians)
 Swaping is turned off.
 Update second derivatives using D2CorX and points    1    2    3
 ITU=  0  0  0
     Eigenvalues ---   -0.07447   0.00117   0.01166   0.01676   0.01735
     Eigenvalues ---    0.02141   0.02819   0.03095   0.03279   0.03757
     Eigenvalues ---    0.06637   0.10311   0.11360   0.11955   0.13243
     Eigenvalues ---    0.15048   0.16555   0.18449   0.20459   0.23490
     Eigenvalues ---    0.29250   0.35089   0.35738   0.36656   0.39413
     Eigenvalues ---    0.40688   0.45629   0.49257   0.53802   1.42212
 Eigenvectors required to have negative eigenvalues:
                          R6        A17       R4        A7        A1
   1                    0.88681  -0.34629  -0.20672  -0.11863  -0.07711
                          R5        A4        A5        A8        A6
   1                   -0.07599   0.06707   0.06690  -0.06573   0.05173
 RFO step:  Lambda0=4.232933448D-13 Lambda= 0.00000000D+00.
 Linear search not attempted -- option 19 set.
 Iteration  1 RMS(Cart)=  0.00002007 RMS(Int)=  0.00000001
 Iteration  2 RMS(Cart)=  0.00000001 RMS(Int)=  0.00000001
 Variable       Old X    -DE/DX   Delta X   Delta X   Delta X     New X
                                 (Linear)    (Quad)   (Total)
    R1        2.67737   0.00000   0.00000   0.00000   0.00000   2.67737
    R2        2.64387   0.00000   0.00000   0.00000   0.00000   2.64387
    R3        2.06345   0.00000   0.00000   0.00000   0.00000   2.06345
    R4        2.52472   0.00000   0.00000   0.00000   0.00000   2.52472
    R5        2.63398   0.00000   0.00000   0.00000   0.00000   2.63398
    R6        3.05464   0.00000   0.00000  -0.00001  -0.00001   3.05463
    R7        2.62964   0.00000   0.00000   0.00000   0.00000   2.62964
    R8        2.06094   0.00000   0.00000   0.00000   0.00000   2.06094
    R9        2.66860   0.00000   0.00000   0.00000   0.00000   2.66860
   R10        2.05524   0.00000   0.00000   0.00000   0.00000   2.05524
   R11        3.64008   0.00000   0.00000   0.00000   0.00000   3.64008
   R12        2.10295   0.00000   0.00000   0.00000   0.00000   2.10295
    A1        2.08694   0.00000   0.00000   0.00000   0.00000   2.08694
    A2        2.11913   0.00000   0.00000   0.00000   0.00000   2.11913
    A3        2.07711   0.00000   0.00000   0.00000   0.00000   2.07711
    A4        1.95178   0.00000   0.00000   0.00000   0.00000   1.95178
    A5        2.33823   0.00000   0.00000   0.00000   0.00000   2.33823
    A6        1.96620   0.00000   0.00000  -0.00002  -0.00002   1.96619
    A7        1.97875   0.00000   0.00000   0.00002   0.00002   1.97876
    A8        1.96674   0.00000   0.00000   0.00000   0.00000   1.96674
    A9        2.17383   0.00000   0.00000   0.00000   0.00000   2.17383
   A10        2.14262   0.00000   0.00000   0.00000   0.00000   2.14262
   A11        2.06888   0.00000   0.00000   0.00000   0.00000   2.06888
   A12        2.10924   0.00000   0.00000   0.00000   0.00000   2.10924
   A13        2.10506   0.00000   0.00000   0.00000   0.00000   2.10506
   A14        2.15380   0.00000   0.00000   0.00000   0.00000   2.15380
   A15        2.08012   0.00000   0.00000   0.00000   0.00000   2.08012
   A16        2.04926   0.00000   0.00000   0.00000   0.00000   2.04926
   A17        2.80396   0.00000   0.00000  -0.00005  -0.00005   2.80392
    D1        0.00000   0.00000   0.00000   0.00000   0.00000   0.00000
    D2        3.14159   0.00000   0.00000   0.00000   0.00000   3.14159
    D3        0.00000   0.00000   0.00000   0.00000   0.00000   0.00000
    D4       -3.14159   0.00000   0.00000   0.00000   0.00000   3.14159
    D5        3.14159   0.00000   0.00000   0.00000   0.00000   3.14159
    D6        0.00000   0.00000   0.00000   0.00000   0.00000   0.00000
    D7        0.00000   0.00000   0.00000   0.00000   0.00000   0.00000
    D8        3.14159   0.00000   0.00000   0.00000   0.00000  -3.14159
    D9        0.00000   0.00000   0.00000   0.00000   0.00000   0.00000
   D10        3.14159   0.00000   0.00000   0.00000   0.00000   3.14159
   D11        3.14159   0.00000   0.00000   0.00000   0.00000   3.14159
   D12        0.00000   0.00000   0.00000   0.00000   0.00000   0.00000
   D13        0.00000   0.00000   0.00000   0.00000   0.00000   0.00000
   D14        3.14159   0.00000   0.00000   0.00000   0.00000  -3.14159
   D15        0.00000   0.00000   0.00000   0.00000   0.00000   0.00000
   D16        3.14159   0.00000   0.00000   0.00000   0.00000   3.14159
   D17        3.14159   0.00000   0.00000   0.00000   0.00000   3.14159
   D18        0.00000   0.00000   0.00000   0.00000   0.00000   0.00000
   D19        0.00000   0.00000   0.00000   0.00000   0.00000   0.00000
   D20        3.14159   0.00000   0.00000   0.00000   0.00000   3.14159
   D21        3.14159   0.00000   0.00000   0.00000   0.00000   3.14159
   D22        0.00000   0.00000   0.00000   0.00000   0.00000   0.00000
         Item               Value     Threshold  Converged?
 Maximum Force            0.000003     0.000450     YES
 RMS     Force            0.000001     0.000300     YES
 Maximum Displacement     0.000112     0.001800     YES
 RMS     Displacement     0.000020     0.001200     YES
 Predicted change in Energy=-1.310448D-10
 Optimization completed.
    -- Stationary point found.
                           ----------------------------
                           !   Optimized Parameters   !
                           ! (Angstroms and Degrees)  !
 --------------------------                            --------------------------
 ! Name  Definition              Value          Derivative Info.                !
 --------------------------------------------------------------------------------
 ! R1    R(1,2)                  1.4168         -DE/DX =    0.0                 !
 ! R2    R(1,6)                  1.3991         -DE/DX =    0.0                 !
 ! R3    R(1,7)                  1.0919         -DE/DX =    0.0                 !
 ! R4    R(2,3)                  1.336          -DE/DX =    0.0                 !
 ! R5    R(3,4)                  1.3938         -DE/DX =    0.0                 !
 ! R6    R(3,10)                 1.6164         -DE/DX =    0.0                 !
 ! R7    R(4,5)                  1.3915         -DE/DX =    0.0                 !
 ! R8    R(4,8)                  1.0906         -DE/DX =    0.0                 !
 ! R9    R(5,6)                  1.4122         -DE/DX =    0.0                 !
 ! R10   R(5,9)                  1.0876         -DE/DX =    0.0                 !
 ! R11   R(6,12)                 1.9262         -DE/DX =    0.0                 !
 ! R12   R(10,11)                1.1128         -DE/DX =    0.0                 !
 ! A1    A(2,1,6)              119.5727         -DE/DX =    0.0                 !
 ! A2    A(2,1,7)              121.4174         -DE/DX =    0.0                 !
 ! A3    A(6,1,7)              119.0099         -DE/DX =    0.0                 !
 ! A4    A(1,2,3)              111.8286         -DE/DX =    0.0                 !
 ! A5    A(2,3,4)              133.971          -DE/DX =    0.0                 !
 ! A6    A(2,3,10)             112.6551         -DE/DX =    0.0                 !
 ! A7    A(4,3,10)             113.374          -DE/DX =    0.0                 !
 ! A8    A(3,4,5)              112.6857         -DE/DX =    0.0                 !
 ! A9    A(3,4,8)              124.5511         -DE/DX =    0.0                 !
 ! A10   A(5,4,8)              122.7632         -DE/DX =    0.0                 !
 ! A11   A(4,5,6)              118.5384         -DE/DX =    0.0                 !
 ! A12   A(4,5,9)              120.8505         -DE/DX =    0.0                 !
 ! A13   A(6,5,9)              120.6111         -DE/DX =    0.0                 !
 ! A14   A(1,6,5)              123.4036         -DE/DX =    0.0                 !
 ! A15   A(1,6,12)             119.1823         -DE/DX =    0.0                 !
 ! A16   A(5,6,12)             117.4141         -DE/DX =    0.0                 !
 ! A17   A(3,10,11)            160.6552         -DE/DX =    0.0                 !
 ! D1    D(6,1,2,3)              0.0            -DE/DX =    0.0                 !
 ! D2    D(7,1,2,3)            180.0            -DE/DX =    0.0                 !
 ! D3    D(2,1,6,5)              0.0            -DE/DX =    0.0                 !
 ! D4    D(2,1,6,12)           180.0            -DE/DX =    0.0                 !
 ! D5    D(7,1,6,5)            180.0            -DE/DX =    0.0                 !
 ! D6    D(7,1,6,12)             0.0            -DE/DX =    0.0                 !
 ! D7    D(1,2,3,4)              0.0            -DE/DX =    0.0                 !
 ! D8    D(1,2,3,10)          -180.0            -DE/DX =    0.0                 !
 ! D9    D(2,3,4,5)              0.0            -DE/DX =    0.0                 !
 ! D10   D(2,3,4,8)            180.0            -DE/DX =    0.0                 !
 ! D11   D(10,3,4,5)           180.0            -DE/DX =    0.0                 !
 ! D12   D(10,3,4,8)             0.0            -DE/DX =    0.0                 !
 ! D13   D(2,3,10,11)            0.0            -DE/DX =    0.0                 !
 ! D14   D(4,3,10,11)         -180.0            -DE/DX =    0.0                 !
 ! D15   D(3,4,5,6)              0.0            -DE/DX =    0.0                 !
 ! D16   D(3,4,5,9)            180.0            -DE/DX =    0.0                 !
 ! D17   D(8,4,5,6)            180.0            -DE/DX =    0.0                 !
 ! D18   D(8,4,5,9)              0.0            -DE/DX =    0.0                 !
 ! D19   D(4,5,6,1)              0.0            -DE/DX =    0.0                 !
 ! D20   D(4,5,6,12)           180.0            -DE/DX =    0.0                 !
 ! D21   D(9,5,6,1)            180.0            -DE/DX =    0.0                 !
 ! D22   D(9,5,6,12)             0.0            -DE/DX =    0.0                 !
 --------------------------------------------------------------------------------
 GradGradGradGradGradGradGradGradGradGradGradGradGradGradGradGradGradGrad

                          Input orientation:                          
 ---------------------------------------------------------------------
 Center     Atomic      Atomic             Coordinates (Angstroms)
 Number     Number       Type             X           Y           Z
 ---------------------------------------------------------------------
      1          6           0       -1.374956   -1.511872   -1.071833
      2          6           0        0.011870   -1.223352   -1.100236
      3          6           0        0.254350    0.072137   -0.881428
      4          6           0       -0.554840    1.180070   -0.635467
      5          6           0       -1.909233    0.861372   -0.614365
      6          6           0       -2.290011   -0.480707   -0.833543
      7          1           0       -1.748935   -2.525137   -1.232306
      8          1           0       -0.184334    2.193150   -0.474826
      9          1           0       -2.659684    1.627440   -0.433247
     10          7           0        1.831845    0.423729   -0.909529
     11          7           0        2.934206    0.298251   -0.995879
     12         35           0       -4.172877   -0.885602   -0.797349
 ---------------------------------------------------------------------
                    Distance matrix (angstroms):
                    1          2          3          4          5
     1  C    0.000000
     2  C    1.416805   0.000000
     3  C    2.280346   1.336027   0.000000
     4  C    2.847729   2.512690   1.393843   0.000000
     5  C    2.475281   2.876245   2.318471   1.391545   0.000000
     6  C    1.399074   2.433372   2.604170   2.410028   1.412163
     7  H    1.091933   2.193745   3.298803   3.938355   3.446156
     8  H    3.937154   3.478810   2.203738   1.090601   2.183662
     9  H    3.451608   3.963470   3.333380   2.161343   1.087585
    10  N    3.749196   2.462023   1.616446   2.518616   3.778137
    11  N    4.674526   3.296394   2.691813   3.616758   4.890967
    12  Br   2.880264   4.209266   4.530416   4.169341   2.865220
                    6          7          8          9         10
     6  C    0.000000
     7  H    2.152085   0.000000
     8  H    3.422289   5.028318   0.000000
     9  H    2.177425   4.325720   2.539510   0.000000
    10  N    4.220601   4.649944   2.717498   4.674355   0.000000
    11  N    5.284465   5.473502   3.686113   5.777101   1.112834
    12  Br   1.926249   2.958506   5.048882   2.955961   6.146838
                   11         12
    11  N    0.000000
    12  Br   7.207742   0.000000
 Stoichiometry    C6H3BrN2
 Framework group  CS[SG(C6H3BrN2)]
 Deg. of freedom    21
 Full point group                 CS      NOp   2
 Omega: Change in point group or standard orientation.

 Old FWG=C01  [X(C6H3Br1N2)]
 New FWG=CS   [SG(C6H3Br1N2)]
 Largest Abelian subgroup         CS      NOp   2
 Largest concise Abelian subgroup C1      NOp   1
                         Standard orientation:                         
 ---------------------------------------------------------------------
 Center     Atomic      Atomic             Coordinates (Angstroms)
 Number     Number       Type             X           Y           Z
 ---------------------------------------------------------------------
      1          6           0       -1.228058   -0.098728    0.000000
      2          6           0       -1.251465   -1.515339    0.000000
      3          6           0       -0.019608   -2.032539    0.000000
      4          6           0        1.261007   -1.482243    0.000000
      5          6           0        1.247210   -0.090767    0.000000
      6          6           0        0.000000    0.571557    0.000000
      7          1           0       -2.150375    0.485780    0.000000
      8          1           0        2.183916   -2.063319    0.000000
      9          1           0        2.175335    0.476177    0.000000
     10          7           0       -0.022999   -3.648981    0.000000
     11          7           0       -0.393830   -4.698212    0.000000
     12         35           0        0.018697    2.497716    0.000000
 ---------------------------------------------------------------------
 Rotational constants (GHZ):      5.5954209      0.4602639      0.4252814

 **********************************************************************

            Population analysis using the SCF density.

 **********************************************************************

 Orbital symmetries:
       Occupied  (A') (A') (A') (A") (A') (A') (A') (A') (A') (A')
                 (A') (A') (A') (A') (A') (A") (A') (A') (A") (A')
                 (A') (A") (A') (A') (A') (A') (A') (A') (A') (A')
                 (A') (A") (A') (A') (A') (A') (A') (A") (A') (A")
                 (A') (A") (A") (A')
       Virtual   (A') (A") (A") (A') (A") (A') (A') (A') (A') (A')
                 (A") (A') (A') (A") (A') (A') (A") (A') (A') (A")
                 (A') (A') (A') (A") (A') (A') (A") (A') (A") (A")
                 (A') (A') (A') (A") (A') (A") (A') (A') (A') (A')
                 (A') (A') (A') (A') (A') (A') (A') (A") (A") (A')
                 (A') (A') (A') (A') (A") (A') (A") (A') (A") (A')
                 (A") (A') (A') (A") (A') (A') (A') (A") (A') (A')
                 (A") (A') (A') (A') (A") (A') (A") (A') (A') (A")
                 (A') (A') (A') (A') (A") (A') (A") (A') (A') (A')
                 (A") (A') (A") (A') (A") (A") (A') (A') (A') (A")
                 (A') (A") (A') (A") (A') (A') (A') (A") (A") (A')
                 (A') (A") (A") (A') (A') (A") (A') (A') (A") (A')
                 (A") (A') (A") (A') (A") (A') (A') (A") (A') (A')
                 (A') (A") (A') (A") (A') (A') (A') (A') (A') (A")
                 (A') (A") (A') (A") (A') (A') (A") (A') (A") (A')
                 (A') (A') (A') (A') (A") (A') (A') (A") (A") (A')
                 (A') (A') (A') (A") (A') (A") (A') (A") (A') (A')
                 (A") (A") (A') (A') (A') (A") (A') (A') (A") (A')
                 (A') (A') (A") (A') (A") (A') (A') (A') (A') (A')
                 (A') (A') (A') (A") (A') (A') (A') (A') (A') (A')
                 (A') (A') (A')
 The electronic state is 1-A'.
 Alpha  occ. eigenvalues -- -482.88597 -62.53704 -56.35404 -56.35069 -56.35054
 Alpha  occ. eigenvalues --  -14.52478 -14.50021 -10.27401 -10.26069 -10.23575
 Alpha  occ. eigenvalues --  -10.22207 -10.21361 -10.17581  -8.71768  -6.54740
 Alpha  occ. eigenvalues --   -6.53530  -6.53483  -2.65782  -2.65441  -2.65407
 Alpha  occ. eigenvalues --   -2.64442  -2.64441  -1.18811  -0.90081  -0.83150
 Alpha  occ. eigenvalues --   -0.77686  -0.76421  -0.67184  -0.63759  -0.57801
 Alpha  occ. eigenvalues --   -0.53652  -0.53228  -0.52191  -0.48742  -0.47392
 Alpha  occ. eigenvalues --   -0.45362  -0.41034  -0.40517  -0.37638  -0.33155
 Alpha  occ. eigenvalues --   -0.29700  -0.27406  -0.26283  -0.22098
 Alpha virt. eigenvalues --   -0.11039  -0.10300  -0.03763  -0.02372  -0.01404
 Alpha virt. eigenvalues --   -0.00989   0.00623   0.01271   0.02767   0.03591
 Alpha virt. eigenvalues --    0.04252   0.04561   0.05752   0.06608   0.07243
 Alpha virt. eigenvalues --    0.07416   0.07726   0.08296   0.09122   0.09771
 Alpha virt. eigenvalues --    0.10602   0.10877   0.11124   0.11624   0.11765
 Alpha virt. eigenvalues --    0.12277   0.12365   0.13543   0.13663   0.15732
 Alpha virt. eigenvalues --    0.16487   0.16891   0.17302   0.18032   0.18287
 Alpha virt. eigenvalues --    0.19491   0.19644   0.20656   0.21733   0.22643
 Alpha virt. eigenvalues --    0.22887   0.23768   0.24053   0.25188   0.25773
 Alpha virt. eigenvalues --    0.26797   0.26951   0.27153   0.28200   0.29000
 Alpha virt. eigenvalues --    0.29411   0.30029   0.31130   0.31579   0.32335
 Alpha virt. eigenvalues --    0.33502   0.35929   0.36450   0.38112   0.38215
 Alpha virt. eigenvalues --    0.39811   0.40412   0.42022   0.43374   0.44216
 Alpha virt. eigenvalues --    0.46137   0.46443   0.47264   0.47739   0.49816
 Alpha virt. eigenvalues --    0.51815   0.52138   0.53037   0.53848   0.54071
 Alpha virt. eigenvalues --    0.54300   0.55749   0.56401   0.56634   0.58138
 Alpha virt. eigenvalues --    0.58168   0.59214   0.60612   0.60802   0.62170
 Alpha virt. eigenvalues --    0.62470   0.62810   0.64143   0.65906   0.67711
 Alpha virt. eigenvalues --    0.70062   0.70589   0.71044   0.71229   0.71735
 Alpha virt. eigenvalues --    0.72958   0.73832   0.74058   0.74330   0.74747
 Alpha virt. eigenvalues --    0.76377   0.76969   0.77020   0.79114   0.79224
 Alpha virt. eigenvalues --    0.80792   0.81839   0.82403   0.84127   0.84890
 Alpha virt. eigenvalues --    0.87228   0.88051   0.88676   0.90508   0.94062
 Alpha virt. eigenvalues --    0.95539   0.97572   1.03156   1.03668   1.04818
 Alpha virt. eigenvalues --    1.06032   1.06118   1.07197   1.09458   1.10101
 Alpha virt. eigenvalues --    1.12861   1.14798   1.16304   1.20162   1.22660
 Alpha virt. eigenvalues --    1.24393   1.25635   1.27154   1.27262   1.30582
 Alpha virt. eigenvalues --    1.32367   1.34179   1.36259   1.38472   1.38518
 Alpha virt. eigenvalues --    1.42060   1.43460   1.43778   1.45193   1.45621
 Alpha virt. eigenvalues --    1.46083   1.48691   1.50029   1.52923   1.54174
 Alpha virt. eigenvalues --    1.56621   1.59035   1.61648   1.63667   1.65085
 Alpha virt. eigenvalues --    1.66124   1.68235   1.71620   1.73402   1.73670
 Alpha virt. eigenvalues --    1.76135   1.80624   1.84945   1.86602   1.89182
 Alpha virt. eigenvalues --    1.90505   1.91978   1.93339   1.95696   1.97393
 Alpha virt. eigenvalues --    2.00374   2.02842   2.03751   2.04156   2.04685
 Alpha virt. eigenvalues --    2.08307   2.14451   2.18640   2.19433   2.19433
 Alpha virt. eigenvalues --    2.24498   2.29225   2.30023   2.30520   2.34636
 Alpha virt. eigenvalues --    2.42402   2.46012   2.54216   2.56769   2.63326
 Alpha virt. eigenvalues --    2.65059   2.71598   2.77564   2.82681   2.84481
 Alpha virt. eigenvalues --    2.87279   2.98594   3.01054   3.07559   3.10704
 Alpha virt. eigenvalues --    3.27031   3.36904   3.69171
          Condensed to atoms (all electrons):
              1          2          3          4          5          6
     1  C    9.630039   0.096030  -0.031095  -1.733832  -1.357044  -0.818639
[...]
 Angle between quadratic step and forces=  30.18 degrees.
 Linear search not attempted -- option 19 set.
 Iteration  1 RMS(Cart)=  0.00005899 RMS(Int)=  0.00000001
 Iteration  2 RMS(Cart)=  0.00000001 RMS(Int)=  0.00000001
 ClnCor:  largest displacement from symmetrization is 1.71D-08 for atom     1.
 Variable       Old X    -DE/DX   Delta X   Delta X   Delta X     New X
                                 (Linear)    (Quad)   (Total)
    R1        2.67737   0.00002   0.00000   0.00006   0.00006   2.67743
    R2        2.64387   0.00000   0.00000   0.00001   0.00001   2.64388
    R3        2.06345   0.00000   0.00000   0.00000   0.00000   2.06345
    R4        2.52472  -0.00002   0.00000  -0.00004  -0.00004   2.52468
    R5        2.63398   0.00000   0.00000   0.00000   0.00000   2.63398
    R6        3.05464  -0.00001   0.00000   0.00004   0.00004   3.05468
    R7        2.62964  -0.00002   0.00000  -0.00004  -0.00004   2.62960
    R8        2.06094   0.00000   0.00000   0.00000   0.00000   2.06094
    R9        2.66860   0.00001   0.00000   0.00002   0.00002   2.66863
   R10        2.05524   0.00001   0.00000   0.00004   0.00004   2.05528
   R11        3.64008   0.00000   0.00000   0.00000   0.00000   3.64008
   R12        2.10295   0.00000   0.00000   0.00000   0.00000   2.10295
    A1        2.08694   0.00000   0.00000   0.00000   0.00000   2.08694
    A2        2.11913   0.00001   0.00000   0.00003   0.00003   2.11916
    A3        2.07711   0.00000   0.00000  -0.00003  -0.00003   2.07709
    A4        1.95178  -0.00001   0.00000  -0.00006  -0.00006   1.95172
    A5        2.33823   0.00002   0.00000   0.00008   0.00008   2.33831
    A6        1.96620  -0.00002   0.00000  -0.00010  -0.00010   1.96610
    A7        1.97875   0.00000   0.00000   0.00002   0.00002   1.97877
    A8        1.96674   0.00000   0.00000  -0.00002  -0.00002   1.96672
    A9        2.17383   0.00000   0.00000  -0.00003  -0.00003   2.17380
   A10        2.14262   0.00000   0.00000   0.00005   0.00005   2.14267
   A11        2.06888   0.00000   0.00000   0.00000   0.00000   2.06888
   A12        2.10924   0.00000   0.00000  -0.00002  -0.00002   2.10922
   A13        2.10506   0.00000   0.00000   0.00002   0.00002   2.10508
   A14        2.15380   0.00000   0.00000   0.00000   0.00000   2.15380
   A15        2.08012  -0.00002   0.00000  -0.00008  -0.00008   2.08004
   A16        2.04926   0.00002   0.00000   0.00008   0.00008   2.04934
   A17        2.80396   0.00000   0.00000  -0.00003  -0.00003   2.80393
    D1        0.00000   0.00000   0.00000   0.00000   0.00000   0.00000
    D2        3.14159   0.00000   0.00000   0.00000   0.00000   3.14159
    D3        0.00000   0.00000   0.00000   0.00000   0.00000   0.00000
    D4        3.14159   0.00000   0.00000   0.00000   0.00000   3.14159
    D5        3.14159   0.00000   0.00000   0.00000   0.00000   3.14159
    D6        0.00000   0.00000   0.00000   0.00000   0.00000   0.00000
    D7        0.00000   0.00000   0.00000   0.00000   0.00000   0.00000
    D8        3.14159   0.00000   0.00000   0.00000   0.00000   3.14159
    D9        0.00000   0.00000   0.00000   0.00000   0.00000   0.00000
   D10        3.14159   0.00000   0.00000   0.00000   0.00000   3.14159
   D11        3.14159   0.00000   0.00000   0.00000   0.00000   3.14159
   D12        0.00000   0.00000   0.00000   0.00000   0.00000   0.00000
   D13        0.00000   0.00000   0.00000   0.00000   0.00000   0.00000
   D14        3.14159   0.00000   0.00000   0.00000   0.00000   3.14159
   D15        0.00000   0.00000   0.00000   0.00000   0.00000   0.00000
   D16        3.14159   0.00000   0.00000   0.00000   0.00000   3.14159
   D17        3.14159   0.00000   0.00000   0.00000   0.00000   3.14159
   D18        0.00000   0.00000   0.00000   0.00000   0.00000   0.00000
   D19        0.00000   0.00000   0.00000   0.00000   0.00000   0.00000
   D20        3.14159   0.00000   0.00000   0.00000   0.00000   3.14159
   D21        3.14159   0.00000   0.00000   0.00000   0.00000   3.14159
   D22        0.00000   0.00000   0.00000   0.00000   0.00000   0.00000
         Item               Value     Threshold  Converged?
 Maximum Force            0.000021     0.000450     YES
 RMS     Force            0.000007     0.000300     YES
 Maximum Displacement     0.000272     0.001800     YES
 RMS     Displacement     0.000059     0.001200     YES
 Predicted change in Energy=-4.923728D-09
 Optimization completed.
    -- Stationary point found.
                           ----------------------------
                           !   Optimized Parameters   !
                           ! (Angstroms and Degrees)  !
 --------------------------                            --------------------------
 ! Name  Definition              Value          Derivative Info.                !
 --------------------------------------------------------------------------------
 ! R1    R(1,2)                  1.4168         -DE/DX =    0.0                 !
 ! R2    R(1,6)                  1.3991         -DE/DX =    0.0                 !
 ! R3    R(1,7)                  1.0919         -DE/DX =    0.0                 !
 ! R4    R(2,3)                  1.336          -DE/DX =    0.0                 !
 ! R5    R(3,4)                  1.3938         -DE/DX =    0.0                 !
 ! R6    R(3,10)                 1.6164         -DE/DX =    0.0                 !
 ! R7    R(4,5)                  1.3915         -DE/DX =    0.0                 !
 ! R8    R(4,8)                  1.0906         -DE/DX =    0.0                 !
 ! R9    R(5,6)                  1.4122         -DE/DX =    0.0                 !
 ! R10   R(5,9)                  1.0876         -DE/DX =    0.0                 !
 ! R11   R(6,12)                 1.9262         -DE/DX =    0.0                 !
 ! R12   R(10,11)                1.1128         -DE/DX =    0.0                 !
 ! A1    A(2,1,6)              119.5727         -DE/DX =    0.0                 !
 ! A2    A(2,1,7)              121.4174         -DE/DX =    0.0                 !
 ! A3    A(6,1,7)              119.0099         -DE/DX =    0.0                 !
 ! A4    A(1,2,3)              111.8286         -DE/DX =    0.0                 !
 ! A5    A(2,3,4)              133.971          -DE/DX =    0.0                 !
 ! A6    A(2,3,10)             112.6551         -DE/DX =    0.0                 !
 ! A7    A(4,3,10)             113.374          -DE/DX =    0.0                 !
 ! A8    A(3,4,5)              112.6857         -DE/DX =    0.0                 !
 ! A9    A(3,4,8)              124.5511         -DE/DX =    0.0                 !
 ! A10   A(5,4,8)              122.7632         -DE/DX =    0.0                 !
 ! A11   A(4,5,6)              118.5384         -DE/DX =    0.0                 !
 ! A12   A(4,5,9)              120.8505         -DE/DX =    0.0                 !
 ! A13   A(6,5,9)              120.6111         -DE/DX =    0.0                 !
 ! A14   A(1,6,5)              123.4036         -DE/DX =    0.0                 !
 ! A15   A(1,6,12)             119.1823         -DE/DX =    0.0                 !
 ! A16   A(5,6,12)             117.4141         -DE/DX =    0.0                 !
 ! A17   A(3,10,11)            160.6552         -DE/DX =    0.0                 !
 ! D1    D(6,1,2,3)              0.0            -DE/DX =    0.0                 !
 ! D2    D(7,1,2,3)            180.0            -DE/DX =    0.0                 !
 ! D3    D(2,1,6,5)              0.0            -DE/DX =    0.0                 !
 ! D4    D(2,1,6,12)           180.0            -DE/DX =    0.0                 !
 ! D5    D(7,1,6,5)            180.0            -DE/DX =    0.0                 !
 ! D6    D(7,1,6,12)             0.0            -DE/DX =    0.0                 !
 ! D7    D(1,2,3,4)              0.0            -DE/DX =    0.0                 !
 ! D8    D(1,2,3,10)           180.0            -DE/DX =    0.0                 !
 ! D9    D(2,3,4,5)              0.0            -DE/DX =    0.0                 !
 ! D10   D(2,3,4,8)            180.0            -DE/DX =    0.0                 !
 ! D11   D(10,3,4,5)           180.0            -DE/DX =    0.0                 !
 ! D12   D(10,3,4,8)             0.0            -DE/DX =    0.0                 !
 ! D13   D(2,3,10,11)            0.0            -DE/DX =    0.0                 !
 ! D14   D(4,3,10,11)          180.0            -DE/DX =    0.0                 !
 ! D15   D(3,4,5,6)              0.0            -DE/DX =    0.0                 !
 ! D16   D(3,4,5,9)            180.0            -DE/DX =    0.0                 !
 ! D17   D(8,4,5,6)            180.0            -DE/DX =    0.0                 !
 ! D18   D(8,4,5,9)              0.0            -DE/DX =    0.0                 !
 ! D19   D(4,5,6,1)              0.0            -DE/DX =    0.0                 !
 ! D20   D(4,5,6,12)           180.0            -DE/DX =    0.0                 !
 ! D21   D(9,5,6,1)            180.0            -DE/DX =    0.0                 !
 ! D22   D(9,5,6,12)             0.0            -DE/DX =    0.0                 !
 --------------------------------------------------------------------------------
 GradGradGradGradGradGradGradGradGradGradGradGradGradGradGradGradGradGrad

 1\1\GINC-LC06-1-7\Freq\RB3LYP\Aug-CC-pVDZ\C6H3Br1N2\UBUNTU\19-Dec-2018
 \0\\#N Geom=AllCheck Guess=TCheck SCRF=Check GenChk RB3LYP/Aug-CC-pVDZ
  Freq\\4-Br-C6H3\\0,1\C,-1.3749562409,-1.5118718774,-1.0718332441\C,0.
 0118697093,-1.2233523723,-1.1002362643\C,0.2543497096,0.0721372843,-0.
 8814280798\C,-0.554839583,1.1800702397,-0.6354670073\C,-1.9092333404,0
 .8613719916,-0.6143650133\C,-2.2900107388,-0.4807066372,-0.833543101\H
 ,-1.7489349839,-2.5251371295,-1.2323064537\H,-0.1843340555,2.193149958
 9,-0.4748261398\H,-2.6596838264,1.6274402255,-0.4332473896\N,1.8318448
 745,0.4237292924,-0.9095294706\N,2.9342057641,0.2982508084,-0.99587850
 01\Br,-4.1728772897,-0.8856017809,-0.7973493553\\Version=EM64L-G09RevB
 .01\State=1-A'\HF=-2913.9947878\RMSD=7.732e-09\RMSF=1.069e-05\ZeroPoin
 t=0.0720476\Thermal=0.0798499\Dipole=0.7599346,1.3410044,0.1970422\Dip
 oleDeriv=-0.3302691,0.18272,0.0490611,0.2610453,0.3933259,0.0649014,0.
 0630549,0.0697751,-0.0446023,-0.2784045,0.1210742,0.0215337,-0.180014,
 -1.0437062,-0.1261203,-0.0327701,-0.1436515,-0.3076127,0.0165914,0.187
 6583,0.0371959,0.3042914,0.7674596,0.1070164,0.058003,0.1141008,0.0894
 756,0.3073656,0.0625852,-0.0094527,-0.1959725,0.0798022,0.0348322,-0.0
 558927,0.0195302,-0.0423185,-0.4634223,-0.2183167,-0.0196991,-0.219723
 9,-0.1356645,0.0098075,-0.0196812,0.0100435,-0.1183265,1.4449429,0.230
 4157,-0.0426806,0.3005987,0.1583012,0.0134662,-0.0301312,0.0171353,-0.
 0060896,0.0053152,-0.0577201,-0.0060309,-0.1024426,-0.0240583,-0.01345
 54,-0.013899,-0.0161415,0.0821264,0.0131592,-0.0895324,-0.0086011,-0.0
 150471,-0.0535634,-0.0346986,0.0048434,-0.0304157,0.1386453,0.030322,0
 .0557028,0.0161995,0.0303609,0.0527919,-0.0167742,0.0115684,-0.0182595
 ,0.1324277,1.5550547,0.2708037,-0.0361088,-0.2892759,-0.3800366,-0.067
 8877,-0.1366679,-0.10016,0.0801713,-1.3775073,-0.6007491,-0.0253056,0.
 2598194,0.2722556,0.0248475,0.129277,0.0744915,0.0569304,-0.923148,-0.
 1446415,0.0238886,-0.1536398,-0.0869074,0.0040649,0.0222954,0.0035519,
 -0.0608271\Polar=189.8704611,18.9099435,107.8736067,-3.9147528,6.84416
 53,65.1353095\PG=CS [SG(C6H3Br1N2)]\NImag=1\\0.56961537,0.05995850,0.6
 7944764,-0.01460561,0.09510258,0.14892821,-0.26997728,-0.08338325,-0.0
 0206599,0.41295157,-0.06017295,-0.06500318,0.00019872,0.16908038,0.475
 40348,0.00210293,0.00154516,-0.04657466,0.01016226,0.06425329,0.074420
 92,-0.01157891,-0.04186710,-0.00734521,-0.07946789,0.01280691,0.004837
 22,0.20340348,-0.04958497,-0.03467941,-0.00183599,-0.08205235,-0.34466
 556,-0.05079590,-0.14923146,0.68591440,-0.00873335,-0.00228206,-0.0084
 2240,-0.01220845,-0.05628798,-0.04501790,-0.03349154,0.11607776,0.1109
 1636,-0.05250166,0.02297391,0.00705409,0.04687572,0.02334291,0.0023510
 4,-0.12043611,0.09166031,0.02059450,0.64677599,0.02001694,-0.01025439,
 -0.00264706,-0.00849148,-0.03139949,-0.00784825,0.12572943,-0.28557431
 ,-0.04975331,0.05085874,0.72969520,0.00652230,-0.00282163,-0.00283441,
 -0.00337189,-0.00968779,0.01343933,0.02671811,-0.04778248,-0.05936153,
 -0.02104495,0.10570465,0.14540183,0.04912190,0.00309662,-0.00174722,-0
 .02561973,-0.02667059,-0.00366643,-0.06433109,0.04955285,0.01328984,-0
 .34180434,-0.08340983,0.00116339,0.71138320,0.04296189,-0.04534958,-0.
 01232593,-0.02560553,-0.01848952,-0.00072960,-0.01091639,0.03142626,0.
 00422274,-0.01919373,-0.12985013,-0.01095682,-0.05711726,0.64655010,0.
 00542159,-0.01001525,0.00726185,-0.00347644,-0.00067093,-0.00608783,0.
 00242280,0.00072526,0.01142398,0.01270281,-0.00724168,-0.06473605,-0.0
 4401726,0.09647173,0.14807372,-0.16604910,0.13156482,0.02956683,-0.046
 99533,-0.00252861,0.00317649,-0.01381772,0.00751799,0.00150869,-0.0071
 9922,-0.03272892,-0.00505648,-0.11205392,-0.06550539,-0.00910328,0.440
 11515,0.06463711,-0.23775518,-0.03500426,0.05245969,0.03603939,0.00060
 271,0.02715282,-0.04276627,-0.00725675,-0.08406658,0.00585304,0.004641
 25,-0.00928617,-0.28089172,-0.03809991,-0.03428455,0.59548333,0.017537
 54,-0.03888487,-0.07178811,0.01306158,0.00379087,0.01568980,0.00503914
 ,-0.00612721,-0.01250431,-0.01428304,0.00167416,0.00822065,0.00099856,
 -0.03484949,-0.07224038,-0.02450913,0.08689738,0.14010105,-0.07663927,
 -0.08749669,-0.01356557,-0.01675926,-0.02222005,-0.00306843,-0.0026163
 0,-0.00641816,-0.00049832,-0.00110549,0.00004293,0.00002719,-0.0021709
 7,0.00284062,0.00100711,0.00594895,0.02108270,0.00369588,0.09173065,-0
 .07928556,-0.29623668,-0.04159698,-0.00466832,0.00074925,0.00054909,-0
 .00044048,0.00147162,-0.00127888,-0.00003079,0.00092140,0.00030884,0.0
 0364509,-0.00082038,-0.00151090,-0.00933064,-0.01913242,-0.00368378,0.
 09058501,0.31308568,-0.01208828,-0.04112149,-0.04595553,0.00008380,0.0
 0156569,-0.00053163,0.00057668,-0.00093209,0.00853221,0.00001298,0.000
 30269,-0.00073394,0.00115401,-0.00146259,0.00608280,-0.00176946,-0.005
 44637,0.00349568,0.01237880,0.04666488,0.03195148,-0.00182106,0.001251
 97,0.00029271,0.00000751,0.00033835,0.00038423,0.00915568,0.02087922,0
 .00323959,-0.08839613,-0.08764540,-0.01254317,-0.00329691,-0.02755308,
 -0.00450423,-0.00383728,-0.00072922,0.00060228,0.00023722,-0.00005097,
 -0.00014376,0.08578791,0.00055856,0.00122666,0.00030175,0.00470691,-0.
 00239025,-0.00170448,-0.01196037,-0.01521613,-0.00209727,-0.08776209,-
 0.29995388,-0.04291119,0.00046539,-0.00050814,-0.00091706,-0.00052176,
 0.00186918,-0.00122469,-0.00013433,-0.00017486,0.00035327,0.09554923,0
 .31419212,0.00016841,0.00026324,-0.00059434,0.00116784,-0.00145187,0.0
 0524774,-0.00266314,-0.00399667,-0.00025931,-0.01256398,-0.04291914,-0
 .03993053,0.00053214,0.00070568,0.00454032,0.00064013,-0.00121506,0.00
 859631,-0.00015836,0.00034798,-0.00202521,0.01347448,0.04701044,0.0295
 3636,-0.00013749,-0.00297380,-0.00031646,-0.00054262,0.00051655,0.0000
 9571,-0.00243186,-0.00300127,-0.00008231,-0.01499234,0.02135666,0.0049
 3196,-0.19271049,0.14379014,0.03505062,0.00764687,-0.00913831,-0.00195
 396,0.00055977,-0.00038365,-0.00008625,0.00117310,-0.00000246,-0.00033
 943,0.20301487,-0.00285462,-0.00420154,-0.00124000,-0.00106548,0.00029
 771,0.00020320,-0.00094067,0.00059567,-0.00082057,-0.00787484,0.008744
 36,0.00132433,0.14106802,-0.19982236,-0.03803536,0.02144029,-0.0150264
 0,-0.00434706,0.00093661,-0.00069118,-0.00022682,0.00050181,0.00042393
 ,0.00088895,-0.14991462,0.20874019,-0.00029630,-0.00123259,0.00341285,
 -0.00018863,0.00011160,-0.00045906,0.00028737,-0.00070058,0.00532176,-
 0.00032124,-0.00036825,0.00386386,0.03456219,-0.03819205,-0.04248739,0
 .00354104,-0.00257844,0.00158827,0.00015211,-0.00015052,0.00023316,-0.
 00024850,0.00091815,-0.00450430,-0.03732279,0.04193577,0.03338510,0.00
 204076,-0.00576345,-0.00011794,-0.03607794,-0.08680718,-0.01472700,0.1
 3978012,0.11354214,0.01165721,-0.07704469,-0.00107459,0.00341774,0.011
 68840,0.02662816,0.00448835,-0.00085953,-0.01078018,-0.00185364,-0.000
 29978,0.00069048,0.00020156,0.00301389,-0.00303841,-0.00075671,-0.0022
 1956,-0.00160885,-0.00002669,1.30211922,-0.00958988,0.01627752,0.00026
 294,-0.01349101,-0.07532026,-0.00898590,0.06194679,0.01294299,0.000789
 62,0.00876543,0.01973082,0.00567011,0.00740625,0.00361804,-0.00095456,
 0.00173847,-0.01302681,-0.00254961,0.00002112,-0.00010359,-0.00020753,
 -0.00299148,0.00106028,0.00047805,0.00126842,0.00066418,-0.00037044,-0
 .19103089,0.06491000,-0.00080413,0.00004015,0.01795020,-0.00155000,-0.
 00474354,-0.02173688,0.00238661,-0.00219827,-0.01193469,0.00518659,0.0
 0624236,-0.01381554,0.00103061,-0.00206989,0.00611234,0.00039824,-0.00
 182043,0.00024340,0.00007963,-0.00024611,0.00099801,-0.00074968,0.0004
 8033,-0.00050388,0.00049115,-0.00020409,0.00225306,-0.10759717,0.01621
 747,0.04532617,-0.00488458,0.01554199,0.00273082,0.01684343,-0.0121672
 4,-0.00267982,-0.05650005,0.00463583,0.00405222,0.00762067,-0.00348892
 ,-0.00064805,-0.00469291,-0.00390536,-0.00052647,0.00293946,0.00057052
 ,-0.00006598,0.00045333,-0.00063072,-0.00015960,-0.00138372,0.00178917
 ,0.00038745,0.00011613,0.00006969,-0.00004521,-1.34557709,0.13844757,0
 .10197702,1.38959764,0.00197776,-0.00835245,-0.00054300,-0.00839792,0.
 02396625,0.00329458,-0.01050185,-0.00847760,-0.00075622,-0.00045162,-0
 .00497625,-0.00217166,-0.00133931,-0.00108053,0.00018171,-0.00055102,0
 .00393167,0.00073482,-0.00017964,0.00017037,0.00010356,0.00121709,-0.0
 0062112,-0.00013924,-0.00035297,-0.00022362,0.00013868,0.15791267,-0.0
 3210577,-0.01249094,-0.14058372,0.02821451,0.00029140,-0.00132684,-0.0
 0621591,-0.00200257,0.00351344,0.00908028,0.00132909,-0.00163052,-0.00
 125335,-0.00010208,-0.00199831,0.00689596,-0.00006269,0.00033296,-0.00
 159635,-0.00026912,0.00066500,0.00016221,-0.00007686,0.00012964,-0.000
 32369,0.00028579,-0.00017189,-0.00028865,-0.00012176,0.00011446,-0.000
 85566,0.10547571,-0.01136466,-0.02159571,-0.10530363,0.01201540,0.0148
 7763,-0.03718869,-0.01290354,0.00011955,-0.00123819,0.00448154,0.00103
 181,-0.00115934,0.00249986,0.00067193,0.00220761,-0.00116555,-0.000116
 14,-0.02551315,-0.00642408,0.00053439,-0.10583834,-0.01761783,0.001730
 77,0.00066114,-0.00009944,-0.00016048,-0.00064019,0.00035016,0.0001111
 8,0.00052361,0.00024266,-0.00009335,0.00343620,-0.00249080,-0.00084886
 ,-0.00453230,0.00125053,0.00055673,0.16928165,0.01137723,0.00488059,-0
 .00067276,0.00090836,0.00081217,-0.00038390,-0.00177765,-0.00097165,-0
 .00055707,0.00177835,-0.00293637,-0.00131760,-0.02741105,-0.00478204,0
 .00006696,-0.01681067,-0.03457781,-0.00143053,0.00093989,0.00076078,0.
 00040679,-0.00076752,0.00009220,0.00002764,-0.00116470,0.00049907,0.00
 048868,0.00133009,0.00135261,0.00079297,-0.00027881,-0.00044546,-0.000
 27866,0.03187649,0.03531592,0.00448351,0.00073360,0.00483225,0.0003884
 9,-0.00059150,0.00252989,-0.00009711,-0.00080330,0.00255918,0.00041329
 ,-0.00114785,0.00359037,-0.00323714,-0.00114674,0.00365302,0.00187604,
 -0.00138512,-0.02156458,0.00002681,0.00046675,-0.00172333,-0.00008974,
 -0.00003736,0.00018549,-0.00034647,0.00040722,-0.00175164,-0.00016143,
 0.00101452,-0.00329648,0.00028126,-0.00036769,0.00111324,-0.00353753,0
 .00285746,0.00987258\\0.00001209,0.00001126,0.00000132,-0.00003636,-0.
 00002020,-0.00000153,0.00001695,0.00001074,0.00000095,0.00001731,-0.00
 000111,-0.00000120,-0.00002881,0.00000284,0.00000218,0.00000675,-0.000
 00701,-0.00000165,0.00000329,-0.00000078,-0.00000033,-0.00000316,-0.00
 000107,0.,0.00000746,-0.00001151,-0.00000250,0.00000917,0.00000763,0.0
 0000084,-0.00000312,0.00000013,0.00000020,-0.00000157,0.00000907,0.000
 00172\\\@


 IN THE WOODS WE RETURN TO REASON AND FAITH.

                                 -- EMERSON
 Job cpu time:  0 days  0 hours 40 minutes  4.2 seconds.
 File lengths (MBytes):  RWF=     96 Int=      0 D2E=      0 Chk=      5 Scr=      1
 Normal termination of Gaussian 09 at Wed Dec 19 05:56:58 2018.
