 Entering Gaussian System, Link 0=/home/ubuntu/g09/g09
 Input=4-CH3O-C6H3-TS.gjf
 Output=4-CH3O-C6H3-TS.log
 Initial command:
 /home/ubuntu/g09/l1.exe /home/ubuntu/g09/Gau-27996.inp -scrdir=/home/ubuntu/g09/
 Entering Link 1 = /home/ubuntu/g09/l1.exe PID=     27998.
  
 Copyright (c) 1988,1990,1992,1993,1995,1998,2003,2009,2010,
            Gaussian, Inc.  All Rights Reserved.
  
 This is part of the Gaussian(R) 09 program.  It is based on
 the Gaussian(R) 03 system (copyright 2003, Gaussian, Inc.),
 the Gaussian(R) 98 system (copyright 1998, Gaussian, Inc.),
 the Gaussian(R) 94 system (copyright 1995, Gaussian, Inc.),
 the Gaussian 92(TM) system (copyright 1992, Gaussian, Inc.),
 the Gaussian 90(TM) system (copyright 1990, Gaussian, Inc.),
 the Gaussian 88(TM) system (copyright 1988, Gaussian, Inc.),
 the Gaussian 86(TM) system (copyright 1986, Carnegie Mellon
 University), and the Gaussian 82(TM) system (copyright 1983,
 Carnegie Mellon University). Gaussian is a federally registered
 trademark of Gaussian, Inc.
  
 This software contains proprietary and confidential information,
 including trade secrets, belonging to Gaussian, Inc.
  
 This software is provided under written license and may be
 used, copied, transmitted, or stored only in accord with that
 written license.
  
 The following legend is applicable only to US Government
 contracts under FAR:
  
                    RESTRICTED RIGHTS LEGEND
  
 Use, reproduction and disclosure by the US Government is
 subject to restrictions as set forth in subparagraphs (a)
 and (c) of the Commercial Computer Software - Restricted
 Rights clause in FAR 52.227-19.
  
 Gaussian, Inc.
 340 Quinnipiac St., Bldg. 40, Wallingford CT 06492
  
  
 ---------------------------------------------------------------
 Warning -- This program may not be used in any manner that
 competes with the business of Gaussian, Inc. or will provide
 assistance to any competitor of Gaussian, Inc.  The licensee
 of this program is prohibited from giving any competitor of
 Gaussian, Inc. access to this program.  By using this program,
 the user acknowledges that Gaussian, Inc. is engaged in the
 business of creating and licensing software in the field of
 computational chemistry and represents and warrants to the
 licensee that it is not a competitor of Gaussian, Inc. and that
 it will not use this program in any manner prohibited above.
 ---------------------------------------------------------------
  

 Cite this work as:
 Gaussian 09, Revision B.01,
 M. J. Frisch, G. W. Trucks, H. B. Schlegel, G. E. Scuseria, 
 M. A. Robb, J. R. Cheeseman, G. Scalmani, V. Barone, B. Mennucci, 
 G. A. Petersson, H. Nakatsuji, M. Caricato, X. Li, H. P. Hratchian, 
 A. F. Izmaylov, J. Bloino, G. Zheng, J. L. Sonnenberg, M. Hada, 
 M. Ehara, K. Toyota, R. Fukuda, J. Hasegawa, M. Ishida, T. Nakajima, 
 Y. Honda, O. Kitao, H. Nakai, T. Vreven, J. A. Montgomery, Jr., 
 J. E. Peralta, F. Ogliaro, M. Bearpark, J. J. Heyd, E. Brothers, 
 K. N. Kudin, V. N. Staroverov, T. Keith, R. Kobayashi, J. Normand, 
 K. Raghavachari, A. Rendell, J. C. Burant, S. S. Iyengar, J. Tomasi, 
 M. Cossi, N. Rega, J. M. Millam, M. Klene, J. E. Knox, J. B. Cross, 
 V. Bakken, C. Adamo, J. Jaramillo, R. Gomperts, R. E. Stratmann, 
 O. Yazyev, A. J. Austin, R. Cammi, C. Pomelli, J. W. Ochterski, 
 R. L. Martin, K. Morokuma, V. G. Zakrzewski, G. A. Voth, 
 P. Salvador, J. J. Dannenberg, S. Dapprich, A. D. Daniels, 
 O. Farkas, J. B. Foresman, J. V. Ortiz, J. Cioslowski, 
 and D. J. Fox, Gaussian, Inc., Wallingford CT, 2010.
 
 ******************************************
 Gaussian 09:  EM64L-G09RevB.01 12-Aug-2010
                19-Dec-2018 
 ******************************************
 %chk=4-CH3O-C6H3-TS.chk
 %mem=500MW
 %nproc=7
 Will use up to    7 processors via shared memory.
 ---------------------------------------------------------
 # rb3lyp/aug-cc-pVDZ opt=(ts,noeigen,calcfc) freq=noraman
 ---------------------------------------------------------
 1/5=1,10=4,11=1,14=-1,18=20,26=3,38=1/1,3;
 2/9=110,12=2,17=6,18=5,40=1/2;
 3/5=16,7=10,11=2,16=1,25=1,30=1,71=2,74=-5,116=1/1,2,3;
 4//1;
 5/5=2,38=5/2;
 8/6=4,10=90,11=11/1;
 11/6=1,8=1,9=11,15=111,16=1/1,2,10;
 10/6=1,7=6,13=1/2;
 6/7=2,8=2,9=2,10=2,28=1/1;
 7/10=1,18=20,25=1/1,2,3,16;
 1/5=1,10=4,11=1,14=-1,18=20/3(2);
 2/9=110/2;
 99//99;
 2/9=110/2;
 3/5=16,7=10,11=2,16=1,25=1,30=1,71=1,74=-5,116=1/1,2,3;
 4/5=5,16=3/1;
 5/5=2,38=5/2;
 7//1,2,3,16;
 1/5=1,11=1,14=-1,18=20/3(-5);
 2/9=110/2;
 6/7=2,8=2,9=2,10=2,19=2,28=1/1;
 99/9=1/99;
 -----------
 4-CH3O-C6H3
 -----------
 Symbolic Z-matrix:
 Charge =  0 Multiplicity = 1
 C                    -1.96824  -0.23244   0.19133 
 C                    -0.64143  -0.31512  -0.22304 
 C                    -0.01094   0.92204  -0.29962 
 C                    -0.40699   2.18154  -0.05953 
 C                    -1.75202   2.22096   0.35634 
 C                    -2.51953   1.04374   0.48056 
 H                    -2.55592  -1.14119   0.28576 
 H                    -0.16009  -1.2648   -0.46005 
 H                    -2.25111   3.16348   0.5981 
 N                     1.53429   0.82461  -0.78234 
 N                     2.57376   1.09654  -1.07533 
 O                    -3.80745   1.21591   0.89146 
 C                    -4.64693   0.07493   1.04111 
 H                    -5.6153    0.46065   1.37414 
 H                    -4.24896  -0.617     1.79918 
 H                    -4.77414  -0.45545   0.08491 
 

 GradGradGradGradGradGradGradGradGradGradGradGradGradGradGradGradGradGrad
 Berny optimization.
 Initialization pass.
                           ----------------------------
                           !    Initial Parameters    !
                           ! (Angstroms and Degrees)  !
 --------------------------                            --------------------------
 ! Name  Definition              Value          Derivative Info.                !
 --------------------------------------------------------------------------------
 ! R1    R(1,2)                  1.3925         calculate D2E/DX2 analytically  !
 ! R2    R(1,6)                  1.4199         calculate D2E/DX2 analytically  !
 ! R3    R(1,7)                  1.0863         calculate D2E/DX2 analytically  !
 ! R4    R(2,3)                  1.3907         calculate D2E/DX2 analytically  !
 ! R5    R(2,8)                  1.0908         calculate D2E/DX2 analytically  !
 ! R6    R(3,4)                  1.342          calculate D2E/DX2 analytically  !
 ! R7    R(3,10)                 1.6218         calculate D2E/DX2 analytically  !
 ! R8    R(4,5)                  1.4084         calculate D2E/DX2 analytically  !
 ! R9    R(5,6)                  1.4108         calculate D2E/DX2 analytically  !
 ! R10   R(5,9)                  1.0936         calculate D2E/DX2 analytically  !
 ! R11   R(6,12)                 1.3628         calculate D2E/DX2 analytically  !
 ! R12   R(10,11)                1.1137         calculate D2E/DX2 analytically  !
 ! R13   R(12,13)                1.4244         calculate D2E/DX2 analytically  !
 ! R14   R(13,14)                1.0943         calculate D2E/DX2 analytically  !
 ! R15   R(13,15)                1.1008         calculate D2E/DX2 analytically  !
 ! R16   R(13,16)                1.1008         calculate D2E/DX2 analytically  !
 ! A1    A(2,1,6)              118.942          calculate D2E/DX2 analytically  !
 ! A2    A(2,1,7)              119.4502         calculate D2E/DX2 analytically  !
 ! A3    A(6,1,7)              121.6078         calculate D2E/DX2 analytically  !
 ! A4    A(1,2,3)              113.3009         calculate D2E/DX2 analytically  !
 ! A5    A(1,2,8)              122.4688         calculate D2E/DX2 analytically  !
 ! A6    A(3,2,8)              124.2303         calculate D2E/DX2 analytically  !
 ! A7    A(2,3,4)              133.7332         calculate D2E/DX2 analytically  !
 ! A8    A(2,3,10)             113.2606         calculate D2E/DX2 analytically  !
 ! A9    A(4,3,10)             113.0062         calculate D2E/DX2 analytically  !
 ! A10   A(3,4,5)              111.1583         calculate D2E/DX2 analytically  !
 ! A11   A(4,5,6)              121.4792         calculate D2E/DX2 analytically  !
 ! A12   A(4,5,9)              121.6853         calculate D2E/DX2 analytically  !
 ! A13   A(6,5,9)              116.8355         calculate D2E/DX2 analytically  !
 ! A14   A(1,6,5)              121.3863         calculate D2E/DX2 analytically  !
 ! A15   A(1,6,12)             122.8117         calculate D2E/DX2 analytically  !
 ! A16   A(5,6,12)             115.8021         calculate D2E/DX2 analytically  !
 ! A17   A(3,10,11)            162.3509         calculate D2E/DX2 analytically  !
 ! A18   A(6,12,13)            119.1731         calculate D2E/DX2 analytically  !
 ! A19   A(12,13,14)           105.7337         calculate D2E/DX2 analytically  !
 ! A20   A(12,13,15)           111.2704         calculate D2E/DX2 analytically  !
 ! A21   A(12,13,16)           111.271          calculate D2E/DX2 analytically  !
 ! A22   A(14,13,15)           109.3844         calculate D2E/DX2 analytically  !
 ! A23   A(14,13,16)           109.3857         calculate D2E/DX2 analytically  !
 ! A24   A(15,13,16)           109.7005         calculate D2E/DX2 analytically  !
 ! D1    D(6,1,2,3)              0.0001         calculate D2E/DX2 analytically  !
 ! D2    D(6,1,2,8)            179.9995         calculate D2E/DX2 analytically  !
 ! D3    D(7,1,2,3)           -179.9994         calculate D2E/DX2 analytically  !
 ! D4    D(7,1,2,8)              0.0            calculate D2E/DX2 analytically  !
 ! D5    D(2,1,6,5)              0.0            calculate D2E/DX2 analytically  !
 ! D6    D(2,1,6,12)          -179.9995         calculate D2E/DX2 analytically  !
 ! D7    D(7,1,6,5)            179.9995         calculate D2E/DX2 analytically  !
 ! D8    D(7,1,6,12)             0.0            calculate D2E/DX2 analytically  !
 ! D9    D(1,2,3,4)              0.0            calculate D2E/DX2 analytically  !
 ! D10   D(1,2,3,10)          -179.9989         calculate D2E/DX2 analytically  !
 ! D11   D(8,2,3,4)           -179.9994         calculate D2E/DX2 analytically  !
 ! D12   D(8,2,3,10)             0.0017         calculate D2E/DX2 analytically  !
 ! D13   D(2,3,4,5)             -0.0002         calculate D2E/DX2 analytically  !
 ! D14   D(10,3,4,5)           179.9987         calculate D2E/DX2 analytically  !
 ! D15   D(2,3,10,11)          179.9869         calculate D2E/DX2 analytically  !
 ! D16   D(4,3,10,11)           -0.0123         calculate D2E/DX2 analytically  !
 ! D17   D(3,4,5,6)              0.0003         calculate D2E/DX2 analytically  !
 ! D18   D(3,4,5,9)           -179.9986         calculate D2E/DX2 analytically  !
 ! D19   D(4,5,6,1)             -0.0002         calculate D2E/DX2 analytically  !
 ! D20   D(4,5,6,12)           179.9992         calculate D2E/DX2 analytically  !
 ! D21   D(9,5,6,1)            179.9988         calculate D2E/DX2 analytically  !
 ! D22   D(9,5,6,12)            -0.0018         calculate D2E/DX2 analytically  !
 ! D23   D(1,6,12,13)           -0.0023         calculate D2E/DX2 analytically  !
 ! D24   D(5,6,12,13)          179.9982         calculate D2E/DX2 analytically  !
 ! D25   D(6,12,13,14)        -179.9955         calculate D2E/DX2 analytically  !
 ! D26   D(6,12,13,15)          61.3385         calculate D2E/DX2 analytically  !
 ! D27   D(6,12,13,16)         -61.3277         calculate D2E/DX2 analytically  !
 --------------------------------------------------------------------------------
 Trust Radius=3.00D-01 FncErr=1.00D-07 GrdErr=1.00D-06
 Number of steps in this run=     77 maximum allowed number of steps=    100.
 Search for a saddle point of order  1.
 GradGradGradGradGradGradGradGradGradGradGradGradGradGradGradGradGradGrad

                          Input orientation:                          
 ---------------------------------------------------------------------
 Center     Atomic      Atomic             Coordinates (Angstroms)
 Number     Number       Type             X           Y           Z
 ---------------------------------------------------------------------
      1          6           0       -1.968240   -0.232440    0.191330
      2          6           0       -0.641430   -0.315120   -0.223040
      3          6           0       -0.010940    0.922040   -0.299620
      4          6           0       -0.406990    2.181540   -0.059530
      5          6           0       -1.752020    2.220960    0.356340
      6          6           0       -2.519530    1.043740    0.480560
      7          1           0       -2.555920   -1.141190    0.285760
      8          1           0       -0.160090   -1.264800   -0.460050
      9          1           0       -2.251110    3.163480    0.598100
     10          7           0        1.534290    0.824610   -0.782340
     11          7           0        2.573760    1.096540   -1.075330
     12          8           0       -3.807450    1.215910    0.891460
     13          6           0       -4.646930    0.074930    1.041110
     14          1           0       -5.615300    0.460650    1.374140
     15          1           0       -4.248960   -0.617000    1.799180
     16          1           0       -4.774140   -0.455450    0.084910
 ---------------------------------------------------------------------
                    Distance matrix (angstroms):
                    1          2          3          4          5
     1  C    0.000000
     2  C    1.392467   0.000000
     3  C    2.324840   1.390664   0.000000
     4  C    2.885781   2.512968   1.341953   0.000000
     5  C    2.468431   2.828567   2.269105   1.408406   0.000000
     6  C    1.419933   2.422563   2.629927   2.459494   1.410797
     7  H    1.086329   2.146285   3.328139   3.972110   3.457642
     8  H    2.181621   1.090758   2.197784   3.478309   3.918068
     9  H    3.431873   3.919949   3.293678   2.190311   1.093564
    10  N    3.785909   2.519039   1.621804   2.476344   3.747829
    11  N    4.899018   3.613396   2.704228   3.330757   4.693226
    12  O    2.443480   3.689152   3.989802   3.660594   2.349739
    13  C    2.827009   4.218322   4.899751   4.860690   3.668087
    14  H    3.896211   5.281305   5.867129   5.669512   4.365723
    15  H    2.816869   4.146659   4.973371   5.103662   4.046049
    16  H    2.816759   4.146543   4.973270   5.103585   4.045992
                    6          7          8          9         10
     6  C    0.000000
     7  H    2.193898   0.000000
     8  H    3.432355   2.512273   0.000000
     9  H    2.139898   4.326737   5.010161   0.000000
    10  N    4.251634   4.662084   2.709323   4.658882   0.000000
    11  N    5.325898   5.759654   3.664482   5.509263   1.113682
    12  O    1.362798   2.736626   4.613430   2.510236   5.611498
    13  C    2.403880   2.534132   4.917326   3.933872   6.488025
    14  H    3.274488   3.620810   6.008390   4.384667   7.476597
    15  H    2.736374   2.330579   4.716209   4.441399   6.495265
    16  H    2.736307   2.330468   4.716088   4.441362   6.495149
                   11         12         13         14         15
    11  N    0.000000
    12  O    6.678499   0.000000
    13  C    7.593508   1.424415   0.000000
    14  H    8.571170   2.017850   1.094271   0.000000
    15  H    7.599246   2.092474   1.100826   1.791333   0.000000
    16  H    7.599109   2.092476   1.100820   1.791341   1.800176
                   16
    16  H    0.000000
 Stoichiometry    C7H6N2O
 Framework group  C1[X(C7H6N2O)]
 Deg. of freedom    42
 Full point group                 C1      NOp   1
 Largest Abelian subgroup         C1      NOp   1
 Largest concise Abelian subgroup C1      NOp   1
                         Standard orientation:                         
 ---------------------------------------------------------------------
 Center     Atomic      Atomic             Coordinates (Angstroms)
 Number     Number       Type             X           Y           Z
 ---------------------------------------------------------------------
      1          6           0        0.719504   -1.023583   -0.000014
      2          6           0       -0.660164   -1.211940   -0.000026
      3          6           0       -1.377971   -0.020847   -0.000030
      4          6           0       -1.026313    1.274211   -0.000025
      5          6           0        0.374463    1.420614   -0.000008
      6          6           0        1.232245    0.300542   -0.000005
      7          1           0        1.376666   -1.888598   -0.000020
      8          1           0       -1.115863   -2.202946   -0.000041
      9          1           0        0.849018    2.405845    0.000021
     10          7           0       -2.984713   -0.241358   -0.000016
     11          7           0       -4.082029   -0.051135    0.000067
     12          8           0        2.566998    0.575592   -0.000004
     13          6           0        3.498058   -0.502409    0.000038
     14          1           0        4.489132   -0.038511    0.000113
     15          1           0        3.386728   -1.126274   -0.900081
     16          1           0        3.386596   -1.126330    0.900095
 ---------------------------------------------------------------------
 Rotational constants (GHZ):      4.9304524      0.6971033      0.6131711
 Standard basis: Aug-CC-pVDZ (5D, 7F)
 There are   284 symmetry adapted basis functions of A   symmetry.
 Integral buffers will be    131072 words long.
 Raffenetti 2 integral format.
 Two-electron integral symmetry is turned on.
   284 basis functions,   496 primitive gaussians,   304 cartesian basis functions
    35 alpha electrons       35 beta electrons
       nuclear repulsion energy       455.0378312701 Hartrees.
 NAtoms=   16 NActive=   16 NUniq=   16 SFac= 1.00D+00 NAtFMM=   50 NAOKFM=F Big=F
 One-electron integrals computed using PRISM.
 NBasis=   284 RedAO= T  NBF=   284
 NBsUse=   284 1.00D-06 NBFU=   284
 Harris functional with IExCor=  402 diagonalized for initial guess.
 ExpMin= 2.97D-02 ExpMax= 1.17D+04 ExpMxC= 4.01D+02 IAcc=3 IRadAn=         0 AccDes= 0.00D+00
 HarFok:  IExCor=  402 AccDes= 0.00D+00 IRadAn=         0 IDoV= 1
 ScaDFX=  1.000000  1.000000  1.000000  1.000000
 FoFCou: FMM=F IPFlag=           0 FMFlag=      100000 FMFlg1=           0
         NFxFlg=           0 DoJE=T BraDBF=F KetDBF=T FulRan=T
         Omega=  0.000000  0.000000  1.000000  0.000000  0.000000 ICntrl=     500 IOpCl=  0
         NMat0=    1 NMatS0=    1 NMatT0=    0 NMatD0=    1 NMtDS0=    0 NMtDT0=    0
         I1Cent=           4 NGrid=           0.
 Petite list used in FoFCou.
 Initial guess orbital symmetries:
       Occupied  (A) (A) (A) (A) (A) (A) (A) (A) (A) (A) (A) (A)
                 (A) (A) (A) (A) (A) (A) (A) (A) (A) (A) (A) (A)
                 (A) (A) (A) (A) (A) (A) (A) (A) (A) (A) (A)
       Virtual   (A) (A) (A) (A) (A) (A) (A) (A) (A) (A) (A) (A)
                 (A) (A) (A) (A) (A) (A) (A) (A) (A) (A) (A) (A)
                 (A) (A) (A) (A) (A) (A) (A) (A) (A) (A) (A) (A)
                 (A) (A) (A) (A) (A) (A) (A) (A) (A) (A) (A) (A)
                 (A) (A) (A) (A) (A) (A) (A) (A) (A) (A) (A) (A)
                 (A) (A) (A) (A) (A) (A) (A) (A) (A) (A) (A) (A)
                 (A) (A) (A) (A) (A) (A) (A) (A) (A) (A) (A) (A)
                 (A) (A) (A) (A) (A) (A) (A) (A) (A) (A) (A) (A)
                 (A) (A) (A) (A) (A) (A) (A) (A) (A) (A) (A) (A)
                 (A) (A) (A) (A) (A) (A) (A) (A) (A) (A) (A) (A)
                 (A) (A) (A) (A) (A) (A) (A) (A) (A) (A) (A) (A)
                 (A) (A) (A) (A) (A) (A) (A) (A) (A) (A) (A) (A)
                 (A) (A) (A) (A) (A) (A) (A) (A) (A) (A) (A) (A)
                 (A) (A) (A) (A) (A) (A) (A) (A) (A) (A) (A) (A)
                 (A) (A) (A) (A) (A) (A) (A) (A) (A) (A) (A) (A)
                 (A) (A) (A) (A) (A) (A) (A) (A) (A) (A) (A) (A)
                 (A) (A) (A) (A) (A) (A) (A) (A) (A) (A) (A) (A)
                 (A) (A) (A) (A) (A) (A) (A) (A) (A) (A) (A) (A)
                 (A) (A) (A) (A) (A) (A) (A) (A) (A) (A) (A) (A)
                 (A) (A) (A) (A) (A) (A) (A) (A) (A) (A) (A) (A)
                 (A) (A) (A) (A) (A) (A) (A) (A) (A)
 The electronic state of the initial guess is 1-A.
 Requested convergence on RMS density matrix=1.00D-08 within 128 cycles.
 Requested convergence on MAX density matrix=1.00D-06.
 Requested convergence on             energy=1.00D-06.
 No special actions if energy rises.
 DSYEVD returned Info=         427 IAlg= 4 N=   284 NDim=   284 NE2=     1844593 trying DSYEV.
 SCF Done:  E(RB3LYP) =  -454.976633106     A.U. after   18 cycles
             Convg  =    0.3328D-08             -V/T =  2.0064
 Range of M.O.s used for correlation:     1   284
 NBasis=   284 NAE=    35 NBE=    35 NFC=     0 NFV=     0
 NROrb=    284 NOA=    35 NOB=    35 NVA=   249 NVB=   249

 **** Warning!!: The largest alpha MO coefficient is  0.95259671D+02

 Symmetrizing basis deriv contribution to polar:
 IMax=3 JMax=2 DiffMx= 0.00D+00
 G2DrvN: will do    17 centers at a time, making    1 passes doing MaxLOS=2.
 Calling FoFCou, ICntrl=  3107 FMM=F I1Cent=   0 AccDes= 0.00D+00.
 FoFDir/FoFCou used for L=0 through L=2.
 End of G2Drv Frequency-dependent properties file   721 does not exist.
 End of G2Drv Frequency-dependent properties file   722 does not exist.
          IDoAtm=1111111111111111
          Differentiating once with respect to nuclear coordinates.
          There are    51 degrees of freedom in the 1st order CPHF.  IDoFFX=5.
     45 vectors produced by pass  0 Test12= 1.71D-10 1.96D-07 XBig12= 7.95D-01 3.02D-01.
 AX will form    45 AO Fock derivatives at one time.
     45 vectors produced by pass  1 Test12= 1.71D-10 1.96D-07 XBig12= 4.15D-01 2.41D-01.
     45 vectors produced by pass  2 Test12= 1.71D-10 1.96D-07 XBig12= 5.41D-03 1.42D-02.
     45 vectors produced by pass  3 Test12= 1.71D-10 1.96D-07 XBig12= 6.04D-05 1.06D-03.
     41 vectors produced by pass  4 Test12= 1.71D-10 1.96D-07 XBig12= 2.09D-07 8.24D-05.
     16 vectors produced by pass  5 Test12= 1.71D-10 1.96D-07 XBig12= 3.61D-10 2.68D-06.
      1 vectors produced by pass  6 Test12= 1.71D-10 1.96D-07 XBig12= 1.84D-12 2.51D-07.
 Inverted reduced A of dimension   238 with in-core refinement.
 End of Minotr Frequency-dependent properties file   721 does not exist.
 End of Minotr Frequency-dependent properties file   722 does not exist.

 **********************************************************************

            Population analysis using the SCF density.

 **********************************************************************

 Orbital symmetries:
       Occupied  (A) (A) (A) (A) (A) (A) (A) (A) (A) (A) (A) (A)
                 (A) (A) (A) (A) (A) (A) (A) (A) (A) (A) (A) (A)
                 (A) (A) (A) (A) (A) (A) (A) (A) (A) (A) (A)
       Virtual   (A) (A) (A) (A) (A) (A) (A) (A) (A) (A) (A) (A)
                 (A) (A) (A) (A) (A) (A) (A) (A) (A) (A) (A) (A)
                 (A) (A) (A) (A) (A) (A) (A) (A) (A) (A) (A) (A)
                 (A) (A) (A) (A) (A) (A) (A) (A) (A) (A) (A) (A)
                 (A) (A) (A) (A) (A) (A) (A) (A) (A) (A) (A) (A)
                 (A) (A) (A) (A) (A) (A) (A) (A) (A) (A) (A) (A)
                 (A) (A) (A) (A) (A) (A) (A) (A) (A) (A) (A) (A)
                 (A) (A) (A) (A) (A) (A) (A) (A) (A) (A) (A) (A)
                 (A) (A) (A) (A) (A) (A) (A) (A) (A) (A) (A) (A)
                 (A) (A) (A) (A) (A) (A) (A) (A) (A) (A) (A) (A)
                 (A) (A) (A) (A) (A) (A) (A) (A) (A) (A) (A) (A)
                 (A) (A) (A) (A) (A) (A) (A) (A) (A) (A) (A) (A)
                 (A) (A) (A) (A) (A) (A) (A) (A) (A) (A) (A) (A)
                 (A) (A) (A) (A) (A) (A) (A) (A) (A) (A) (A) (A)
                 (A) (A) (A) (A) (A) (A) (A) (A) (A) (A) (A) (A)
                 (A) (A) (A) (A) (A) (A) (A) (A) (A) (A) (A) (A)
                 (A) (A) (A) (A) (A) (A) (A) (A) (A) (A) (A) (A)
                 (A) (A) (A) (A) (A) (A) (A) (A) (A) (A) (A) (A)
                 (A) (A) (A) (A) (A) (A) (A) (A) (A) (A) (A) (A)
                 (A) (A) (A) (A) (A) (A) (A) (A) (A) (A) (A) (A)
                 (A) (A) (A) (A) (A) (A) (A) (A) (A)
 The electronic state is 1-A.
 Alpha  occ. eigenvalues --  -19.18896 -14.51029 -14.48444 -10.26029 -10.25635
 Alpha  occ. eigenvalues --  -10.24987 -10.22272 -10.20520 -10.18841 -10.15702
 Alpha  occ. eigenvalues --   -1.17257  -1.07986  -0.87777  -0.78786  -0.76199
 Alpha  occ. eigenvalues --   -0.72036  -0.65822  -0.61966  -0.56797  -0.53780
 Alpha  occ. eigenvalues --   -0.51769  -0.51724  -0.50681  -0.48243  -0.47931
 Alpha  occ. eigenvalues --   -0.45754  -0.42651  -0.41544  -0.39142  -0.38514
 Alpha  occ. eigenvalues --   -0.34631  -0.34175  -0.25961  -0.23930  -0.20375
 Alpha virt. eigenvalues --   -0.09411  -0.08653  -0.02204  -0.01739  -0.00409
 Alpha virt. eigenvalues --    0.01120   0.01193   0.02118   0.02310   0.03000
 Alpha virt. eigenvalues --    0.03549   0.04594   0.05593   0.05593   0.06595
 Alpha virt. eigenvalues --    0.07327   0.07753   0.08864   0.09212   0.09492
 Alpha virt. eigenvalues --    0.09694   0.10422   0.10514   0.11135   0.11538
 Alpha virt. eigenvalues --    0.11954   0.12138   0.12689   0.13297   0.13374
 Alpha virt. eigenvalues --    0.13847   0.14123   0.14796   0.15133   0.16393
 Alpha virt. eigenvalues --    0.16612   0.17819   0.19080   0.19512   0.20085
 Alpha virt. eigenvalues --    0.20929   0.21436   0.22112   0.22810   0.23366
 Alpha virt. eigenvalues --    0.23669   0.24156   0.25094   0.25601   0.25785
 Alpha virt. eigenvalues --    0.26239   0.27183   0.27628   0.28297   0.28699
 Alpha virt. eigenvalues --    0.29132   0.29422   0.30609   0.31132   0.31656
 Alpha virt. eigenvalues --    0.32012   0.33263   0.34381   0.34687   0.35540
 Alpha virt. eigenvalues --    0.37236   0.37545   0.38199   0.38470   0.39821
 Alpha virt. eigenvalues --    0.40555   0.42114   0.43264   0.43598   0.44379
 Alpha virt. eigenvalues --    0.45326   0.45413   0.46416   0.47797   0.48421
 Alpha virt. eigenvalues --    0.50151   0.50910   0.51885   0.52445   0.53096
 Alpha virt. eigenvalues --    0.53439   0.53674   0.54449   0.55211   0.56280
 Alpha virt. eigenvalues --    0.56642   0.57916   0.58894   0.59356   0.59763
 Alpha virt. eigenvalues --    0.60173   0.61955   0.62171   0.62574   0.63685
 Alpha virt. eigenvalues --    0.63912   0.64659   0.64914   0.66075   0.66558
 Alpha virt. eigenvalues --    0.67117   0.69166   0.69915   0.70907   0.71480
 Alpha virt. eigenvalues --    0.72323   0.72602   0.72700   0.73240   0.74671
 Alpha virt. eigenvalues --    0.75790   0.75906   0.76971   0.77007   0.78501
 Alpha virt. eigenvalues --    0.79820   0.80581   0.82346   0.82470   0.83964
 Alpha virt. eigenvalues --    0.84258   0.85065   0.86406   0.86573   0.87549
 Alpha virt. eigenvalues --    0.90089   0.92645   0.93466   0.95160   0.95932
 Alpha virt. eigenvalues --    0.97279   0.99398   1.02353   1.03798   1.04086
 Alpha virt. eigenvalues --    1.07911   1.10178   1.11337   1.14246   1.14868
 Alpha virt. eigenvalues --    1.15596   1.20365   1.21271   1.22860   1.24571
 Alpha virt. eigenvalues --    1.27392   1.27785   1.29191   1.30730   1.32473
 Alpha virt. eigenvalues --    1.34128   1.35082   1.37784   1.39966   1.41103
 Alpha virt. eigenvalues --    1.41158   1.42820   1.43981   1.44988   1.46174
 Alpha virt. eigenvalues --    1.48162   1.49348   1.49504   1.51197   1.53259
 Alpha virt. eigenvalues --    1.55432   1.56978   1.57271   1.57980   1.60152
 Alpha virt. eigenvalues --    1.62184   1.62410   1.64472   1.64938   1.68017
 Alpha virt. eigenvalues --    1.68082   1.68867   1.71285   1.71869   1.73055
 Alpha virt. eigenvalues --    1.75858   1.77854   1.81227   1.82637   1.86426
 Alpha virt. eigenvalues --    1.87997   1.88219   1.91631   1.92883   1.95388
 Alpha virt. eigenvalues --    1.95464   1.96508   1.97601   2.00003   2.00382
 Alpha virt. eigenvalues --    2.01013   2.01840   2.02663   2.04581   2.07097
 Alpha virt. eigenvalues --    2.07959   2.10501   2.11674   2.13849   2.17508
 Alpha virt. eigenvalues --    2.20143   2.23501   2.23917   2.24871   2.27784
 Alpha virt. eigenvalues --    2.30575   2.32293   2.35200   2.36054   2.37273
 Alpha virt. eigenvalues --    2.41868   2.42529   2.49243   2.50318   2.56498
 Alpha virt. eigenvalues --    2.58719   2.58875   2.60661   2.66932   2.69123
 Alpha virt. eigenvalues --    2.75609   2.77902   2.83299   2.84199   2.87454
 Alpha virt. eigenvalues --    2.91617   3.01149   3.06259   3.10811   3.12906
 Alpha virt. eigenvalues --    3.18447   3.37968   3.40130   3.40461   3.49668
 Alpha virt. eigenvalues --    3.50059   3.68627   3.77530   4.03097
          Condensed to atoms (all electrons):
              1          2          3          4          5          6
     1  C   15.694950  -4.202920   0.743143  -1.800278   0.075212  -4.729396
     2  C   -4.202920  17.418396  -4.603513  -0.767715  -2.368409   1.573931
     3  C    0.743143  -4.603513  10.789604  -0.427924   0.412086  -2.425957
     4  C   -1.800278  -0.767715  -0.427924  10.973724  -0.793523   0.499616
     5  C    0.075212  -2.368409   0.412086  -0.793523  10.931015  -1.955460
     6  C   -4.729396   1.573931  -2.425957   0.499616  -1.955460  11.933041
     7  H   -2.717600   0.315309  -0.565664   0.046750   0.231843   1.256372
     8  H    0.909168  -2.349372   1.301706  -0.025941   0.161141  -0.651306
     9  H   -0.016560   0.128465  -0.158737  -0.083156  -1.360352   0.679169
    10  N   -0.184633   0.248195   0.076653  -0.169171  -0.040661   0.061404
    11  N   -0.036725  -0.184808  -0.271635   0.177366  -0.099963   0.080798
    12  O    0.738348  -0.231544   0.140386  -0.090625   0.079261  -0.936113
    13  C    0.022566  -0.020473   0.002043   0.018811  -0.053666  -0.070174
    14  H   -0.173562  -0.028459   0.017036  -0.007951  -0.029212   0.336042
    15  H    0.074205   0.050195  -0.012616   0.006584  -0.013290  -0.112621
    16  H    0.074140   0.050197  -0.012624   0.006591  -0.013267  -0.112575
              7          8          9         10         11         12
     1  C   -2.717600   0.909168  -0.016560  -0.184633  -0.036725   0.738348
     2  C    0.315309  -2.349372   0.128465   0.248195  -0.184808  -0.231544
     3  C   -0.565664   1.301706  -0.158737   0.076653  -0.271635   0.140386
     4  C    0.046750  -0.025941  -0.083156  -0.169171   0.177366  -0.090625
     5  C    0.231843   0.161141  -1.360352  -0.040661  -0.099963   0.079261
     6  C    1.256372  -0.651306   0.679169   0.061404   0.080798  -0.936113
     7  H    4.269010  -0.260137  -0.024705  -0.022636  -0.006980  -0.185883
     8  H   -0.260137   2.768682   0.010491  -0.105949  -0.006907   0.006664
     9  H   -0.024705   0.010491   2.721141   0.002338   0.007815  -0.155933
    10  N   -0.022636  -0.105949   0.002338   8.119098  -1.426430  -0.005388
    11  N   -0.006980  -0.006907   0.007815  -1.426430   9.482325  -0.001131
    12  O   -0.185883   0.006664  -0.155933  -0.005388  -0.001131   9.313437
    13  C   -0.000305   0.009367   0.015989   0.001529   0.000654   0.156720
    14  H    0.043303  -0.000913  -0.008377  -0.000398  -0.000109  -0.413725
    15  H   -0.086067   0.001538   0.004183   0.000800   0.000314   0.106891
    16  H   -0.086056   0.001539   0.004183   0.000800   0.000314   0.106903
             13         14         15         16
     1  C    0.022566  -0.173562   0.074205   0.074140
     2  C   -0.020473  -0.028459   0.050195   0.050197
     3  C    0.002043   0.017036  -0.012616  -0.012624
     4  C    0.018811  -0.007951   0.006584   0.006591
     5  C   -0.053666  -0.029212  -0.013290  -0.013267
     6  C   -0.070174   0.336042  -0.112621  -0.112575
     7  H   -0.000305   0.043303  -0.086067  -0.086056
     8  H    0.009367  -0.000913   0.001538   0.001539
     9  H    0.015989  -0.008377   0.004183   0.004183
    10  N    0.001529  -0.000398   0.000800   0.000800
    11  N    0.000654  -0.000109   0.000314   0.000314
    12  O    0.156720  -0.413725   0.106891   0.106903
    13  C    3.996028   0.207711   0.245031   0.245045
    14  H    0.207711   2.711780  -0.548905  -0.548936
    15  H    0.245031  -0.548905   1.605517  -0.135458
    16  H    0.245045  -0.548936  -0.135458   1.605503
 Mulliken atomic charges:
              1
     1  C    1.529942
     2  C    0.972524
     3  C    0.996012
     4  C   -1.563158
     5  C    0.837244
     6  C    0.573230
     7  H   -1.206554
     8  H   -0.769770
     9  H   -0.765952
    10  N    0.444450
    11  N   -0.714899
    12  O   -0.628268
    13  C    1.223124
    14  H   -0.555324
    15  H   -0.186303
    16  H   -0.186297
 Sum of Mulliken atomic charges =   0.00000
 Mulliken charges with hydrogens summed into heavy atoms:
              1
     1  C    0.323388
     2  C    0.202754
     3  C    0.996012
     4  C   -1.563158
     5  C    0.071292
     6  C    0.573230
    10  N    0.444450
    11  N   -0.714899
    12  O   -0.628268
    13  C    0.295199
 Sum of Mulliken charges with hydrogens summed into heavy atoms =   0.00000
 APT atomic charges:
              1
     1  C    0.747416
     2  C    0.410542
     3  C   -0.020777
     4  C   -0.013295
     5  C    0.506820
     6  C   -0.078575
     7  H   -0.638090
     8  H   -0.262705
     9  H   -0.286014
    10  N   -1.556474
    11  N    1.111478
    12  O   -0.160640
    13  C   -0.326164
    14  H   -0.365716
    15  H    0.466067
    16  H    0.466126
 Sum of APT charges=   0.00000
 APT Atomic charges with hydrogens summed into heavy atoms:
              1
     1  C    0.109326
     2  C    0.147837
     3  C   -0.020777
     4  C   -0.013295
     5  C    0.220806
     6  C   -0.078575
     7  H    0.000000
     8  H    0.000000
     9  H    0.000000
    10  N   -1.556474
    11  N    1.111478
    12  O   -0.160640
    13  C    0.240314
    14  H    0.000000
    15  H    0.000000
    16  H    0.000000
 Sum of APT charges=   0.00000
 Electronic spatial extent (au):  <R**2>=           1717.2158
 Charge=              0.0000 electrons
 Dipole moment (field-independent basis, Debye):
    X=              0.8460    Y=             -4.3239    Z=              0.0001  Tot=              4.4059
 Quadrupole moment (field-independent basis, Debye-Ang):
   XX=            -47.9445   YY=            -59.8278   ZZ=            -60.0739
   XY=              1.8379   XZ=              0.0002   YZ=              0.0002
 Traceless Quadrupole moment (field-independent basis, Debye-Ang):
   XX=              8.0042   YY=             -3.8791   ZZ=             -4.1251
   XY=              1.8379   XZ=              0.0002   YZ=              0.0002
 Octapole moment (field-independent basis, Debye-Ang**2):
  XXX=             27.3485  YYY=            -16.8380  ZZZ=              0.0004  XYY=              7.9951
  XXY=            -21.6637  XXZ=              0.0002  XZZ=              0.8447  YZZ=             -1.8304
  YYZ=              0.0003  XYZ=             -0.0001
 Hexadecapole moment (field-independent basis, Debye-Ang**3):
 XXXX=          -1725.8291 YYYY=           -365.1596 ZZZZ=            -74.7875 XXXY=              1.9735
 XXXZ=              0.0057 YYYX=             36.0088 YYYZ=              0.0011 ZZZX=             -0.0010
 ZZZY=              0.0002 XXYY=           -377.3791 XXZZ=           -317.6038 YYZZ=            -79.5499
 XXYZ=              0.0006 YYXZ=             -0.0001 ZZXY=              3.1395
 N-N= 4.550378312701D+02 E-N=-1.968838186690D+03  KE= 4.520776475331D+02
  Exact polarizability:   0.000   0.000   0.000   0.000   0.000   0.000
 Approx polarizability: 303.134  23.265 198.082  -0.002   0.000  98.341
 Calling FoFJK, ICntrl=    100147 FMM=F ISym2X=0 I1Cent= 0 IOpClX= 0 NMat=1 NMatS=1 NMatT=0.
 ***** Axes restored to original set *****
 -------------------------------------------------------------------
 Center     Atomic                   Forces (Hartrees/Bohr)
 Number     Number              X              Y              Z
 -------------------------------------------------------------------
      1        6          -0.000076278    0.000216289    0.000044172
      2        6           0.000361600   -0.000085539   -0.000117461
      3        6           0.004292638    0.001230134   -0.001200058
      4        6           0.000022958   -0.001283524   -0.000127797
      5        6          -0.000026093    0.000609740    0.000063769
      6        6           0.000106254   -0.000323082   -0.000061913
      7        1           0.000058074    0.000004394   -0.000017532
      8        1          -0.000031736   -0.000001607    0.000009118
      9        1          -0.000020678   -0.000030348    0.000004511
     10        7          -0.004562266   -0.001233798    0.001280695
     11        7          -0.000039284    0.000839001    0.000091933
     12        8          -0.000061404    0.000032387    0.000020142
     13        6           0.000004769    0.000061379    0.000009416
     14        1          -0.000008183   -0.000005329    0.000001081
     15        1          -0.000009447   -0.000014866    0.000001243
     16        1          -0.000010925   -0.000015230   -0.000001319
 -------------------------------------------------------------------
 Cartesian Forces:  Max     0.004562266 RMS     0.001004713

 GradGradGradGradGradGradGradGradGradGradGradGradGradGradGradGradGradGrad
 Berny optimization.
 Internal  Forces:  Max     0.004769553 RMS     0.000637731
 Search for a saddle point.
 Step number   1 out of a maximum of   77
 All quantities printed in internal units (Hartrees-Bohrs-Radians)
 Swaping is turned off.
 Second derivative matrix not updated -- analytic derivatives used.
 ITU=  0
     Eigenvalues ---   -0.07810   0.00120   0.00355   0.01124   0.01449
     Eigenvalues ---    0.01648   0.01758   0.02128   0.02837   0.03196
     Eigenvalues ---    0.03452   0.03566   0.06128   0.08396   0.08541
     Eigenvalues ---    0.10383   0.11294   0.11848   0.12610   0.14363
     Eigenvalues ---    0.16153   0.18000   0.18182   0.19488   0.20643
     Eigenvalues ---    0.21741   0.27787   0.32281   0.32813   0.33088
     Eigenvalues ---    0.34401   0.34954   0.35369   0.35608   0.37193
     Eigenvalues ---    0.37750   0.40413   0.45497   0.48917   0.51544
     Eigenvalues ---    0.53637   1.40311
 Eigenvectors required to have negative eigenvalues:
                          R7        A17       R6        A8        A11
   1                    0.89210  -0.32915  -0.21172  -0.11205  -0.08106
                          R4        A7        A4        A10       A12
   1                   -0.07899   0.06960  -0.06781   0.06729   0.04705
 RFO step:  Lambda0=1.429130853D-04 Lambda=-1.85662804D-04.
 Linear search not attempted -- option 19 set.
 Iteration  1 RMS(Cart)=  0.01272541 RMS(Int)=  0.00040676
 Iteration  2 RMS(Cart)=  0.00040435 RMS(Int)=  0.00000482
 Iteration  3 RMS(Cart)=  0.00000008 RMS(Int)=  0.00000482
 Variable       Old X    -DE/DX   Delta X   Delta X   Delta X     New X
                                 (Linear)    (Quad)   (Total)
    R1        2.63138   0.00011   0.00000   0.00215   0.00214   2.63352
    R2        2.68328  -0.00003   0.00000  -0.00091  -0.00091   2.68237
    R3        2.05286  -0.00004   0.00000   0.00002   0.00002   2.05288
    R4        2.62797  -0.00017   0.00000  -0.00312  -0.00312   2.62485
    R5        2.06123  -0.00001   0.00000   0.00013   0.00013   2.06137
    R6        2.53592  -0.00089   0.00000  -0.01399  -0.01399   2.52194
    R7        3.06476  -0.00477   0.00000   0.01888   0.01888   3.08365
    R8        2.66150  -0.00003   0.00000  -0.00291  -0.00290   2.65860
    R9        2.66602   0.00011   0.00000   0.00153   0.00153   2.66755
   R10        2.06654  -0.00002   0.00000  -0.00047  -0.00047   2.06606
   R11        2.57532   0.00010   0.00000   0.00080   0.00080   2.57611
   R12        2.10455   0.00014   0.00000   0.00116   0.00116   2.10572
   R13        2.69175   0.00000   0.00000  -0.00034  -0.00034   2.69142
   R14        2.06787   0.00001   0.00000   0.00005   0.00005   2.06792
   R15        2.08026   0.00001   0.00000   0.00009   0.00009   2.08035
   R16        2.08025   0.00001   0.00000   0.00010   0.00010   2.08035
    A1        2.07593   0.00009   0.00000   0.00241   0.00239   2.07832
    A2        2.08480  -0.00009   0.00000  -0.00117  -0.00117   2.08363
    A3        2.12246   0.00001   0.00000  -0.00123  -0.00123   2.12123
    A4        1.97747  -0.00015   0.00000  -0.00226  -0.00228   1.97520
    A5        2.13748   0.00005   0.00000   0.00100   0.00101   2.13849
    A6        2.16823   0.00010   0.00000   0.00126   0.00127   2.16950
    A7        2.33408   0.00005   0.00000  -0.00356  -0.00356   2.33053
    A8        1.97677  -0.00019   0.00000  -0.00253  -0.00253   1.97424
    A9        1.97233   0.00014   0.00000   0.00609   0.00609   1.97842
   A10        1.94008   0.00044   0.00000   0.01328   0.01330   1.95338
   A11        2.12021  -0.00037   0.00000  -0.01002  -0.01001   2.11020
   A12        2.12381   0.00022   0.00000   0.00634   0.00634   2.13015
   A13        2.03916   0.00015   0.00000   0.00368   0.00367   2.04284
   A14        2.11859  -0.00006   0.00000   0.00015   0.00015   2.11874
   A15        2.14347   0.00013   0.00000   0.00107   0.00107   2.14454
   A16        2.02113  -0.00008   0.00000  -0.00122  -0.00122   2.01991
   A17        2.83356  -0.00176   0.00000  -0.06009  -0.06009   2.77347
   A18        2.07996   0.00010   0.00000  -0.00019  -0.00019   2.07977
   A19        1.84540   0.00001   0.00000   0.00019   0.00019   1.84560
   A20        1.94204   0.00002   0.00000   0.00014   0.00014   1.94218
   A21        1.94205   0.00002   0.00000   0.00013   0.00013   1.94218
   A22        1.90912  -0.00001   0.00000  -0.00005  -0.00005   1.90907
   A23        1.90914  -0.00001   0.00000  -0.00007  -0.00007   1.90907
   A24        1.91464  -0.00002   0.00000  -0.00034  -0.00034   1.91430
    D1        0.00000   0.00000   0.00000   0.00000   0.00000   0.00000
    D2        3.14158   0.00000   0.00000   0.00001   0.00001  -3.14159
    D3       -3.14158   0.00000   0.00000  -0.00001  -0.00001   3.14159
    D4        0.00000   0.00000   0.00000   0.00000   0.00000   0.00000
    D5        0.00000   0.00000   0.00000   0.00000   0.00000   0.00000
    D6       -3.14158   0.00000   0.00000  -0.00001  -0.00001  -3.14159
    D7        3.14158   0.00000   0.00000   0.00001   0.00001   3.14159
    D8        0.00000   0.00000   0.00000   0.00000   0.00000   0.00000
    D9        0.00000   0.00000   0.00000   0.00000   0.00000   0.00000
   D10       -3.14157   0.00000   0.00000  -0.00002  -0.00002  -3.14159
   D11       -3.14158   0.00000   0.00000  -0.00001  -0.00001  -3.14159
   D12        0.00003   0.00000   0.00000  -0.00003  -0.00003   0.00000
   D13        0.00000   0.00000   0.00000   0.00000   0.00000   0.00000
   D14        3.14157   0.00000   0.00000   0.00002   0.00002   3.14159
   D15        3.14136   0.00000   0.00000   0.00022   0.00022   3.14158
   D16       -0.00021   0.00000   0.00000   0.00020   0.00020  -0.00002
   D17        0.00001   0.00000   0.00000   0.00000   0.00000   0.00000
   D18       -3.14157   0.00000   0.00000  -0.00002  -0.00002  -3.14159
   D19        0.00000   0.00000   0.00000   0.00000   0.00000   0.00000
   D20        3.14158   0.00000   0.00000   0.00001   0.00001   3.14159
   D21        3.14157   0.00000   0.00000   0.00002   0.00002  -3.14159
   D22       -0.00003   0.00000   0.00000   0.00003   0.00003   0.00000
   D23       -0.00004   0.00000   0.00000   0.00004   0.00004   0.00000
   D24        3.14156   0.00000   0.00000   0.00003   0.00003   3.14159
   D25       -3.14151   0.00000   0.00000  -0.00007  -0.00007  -3.14159
   D26        1.07056   0.00000   0.00000  -0.00021  -0.00021   1.07035
   D27       -1.07037   0.00000   0.00000   0.00003   0.00003  -1.07034
         Item               Value     Threshold  Converged?
 Maximum Force            0.004770     0.000450     NO 
 RMS     Force            0.000638     0.000300     NO 
 Maximum Displacement     0.084544     0.001800     NO 
 RMS     Displacement     0.012712     0.001200     NO 
 Predicted change in Energy=-2.150228D-05
 GradGradGradGradGradGradGradGradGradGradGradGradGradGradGradGradGradGrad

                          Input orientation:                          
 ---------------------------------------------------------------------
 Center     Atomic      Atomic             Coordinates (Angstroms)
 Number     Number       Type             X           Y           Z
 ---------------------------------------------------------------------
      1          6           0       -1.969232   -0.234165    0.191462
      2          6           0       -0.641758   -0.321757   -0.223574
      3          6           0       -0.010595    0.913175   -0.300582
      4          6           0       -0.407299    2.164685   -0.061053
      5          6           0       -1.749959    2.219417    0.355538
      6          6           0       -2.518966    1.042252    0.480229
      7          1           0       -2.558914   -1.141553    0.286631
      8          1           0       -0.162693   -1.272807   -0.460018
      9          1           0       -2.244673    3.164233    0.596191
     10          7           0        1.543638    0.809057   -0.786666
     11          7           0        2.568950    1.141279   -1.069548
     12          8           0       -3.806848    1.217402    0.891386
     13          6           0       -4.648339    0.078235    1.041869
     14          1           0       -5.616003    0.465783    1.374917
     15          1           0       -4.251529   -0.614201    1.800152
     16          1           0       -4.776779   -0.452635    0.086045
 ---------------------------------------------------------------------
                    Distance matrix (angstroms):
                    1          2          3          4          5
     1  C    0.000000
     2  C    1.393597   0.000000
     3  C    2.322662   1.389012   0.000000
     4  C    2.873653   2.502754   1.334551   0.000000
     5  C    2.468819   2.832144   2.272036   1.406869   0.000000
     6  C    1.419449   2.424823   2.630257   2.451934   1.411607
     7  H    1.086340   2.146593   3.325757   3.959992   3.457639
     8  H    2.183297   1.090828   2.197060   3.469201   3.921756
     9  H    3.433480   3.923452   3.295841   2.192489   1.093313
    10  N    3.792797   2.524237   1.631796   2.484028   3.760522
    11  N    4.906841   3.628332   2.701369   3.304918   4.673995
    12  O    2.444130   3.691875   3.990600   3.655328   2.349885
    13  C    2.828144   4.220667   4.899793   4.853466   3.668285
    14  H    3.897362   5.283796   5.867543   5.663821   4.365851
    15  H    2.818011   4.148666   4.973076   5.095527   4.046498
    16  H    2.818007   4.148661   4.973071   5.095524   4.046496
                    6          7          8          9         10
     6  C    0.000000
     7  H    2.192734   0.000000
     8  H    3.434470   2.513282   0.000000
     9  H    2.142775   4.328321   5.013735   0.000000
    10  N    4.261943   4.667738   2.711536   4.670166   0.000000
    11  N    5.319634   5.774559   3.696108   5.480693   1.114297
    12  O    1.363220   2.736372   4.615983   2.513500   5.622305
    13  C    2.403955   2.534554   4.919552   3.936956   6.497555
    14  H    3.274816   3.621282   6.010679   4.387927   7.486704
    15  H    2.736386   2.331049   4.718125   4.444497   6.503941
    16  H    2.736383   2.331044   4.718120   4.444496   6.503935
                   11         12         13         14         15
    11  N    0.000000
    12  O    6.670972   0.000000
    13  C    7.594564   1.424237   0.000000
    14  H    8.568848   2.017863   1.094298   0.000000
    15  H    7.604986   2.092454   1.100872   1.791363   0.000000
    16  H    7.604978   2.092454   1.100872   1.791363   1.800043
                   16
    16  H    0.000000
 Stoichiometry    C7H6N2O
 Framework group  C1[X(C7H6N2O)]
 Deg. of freedom    42
 Full point group                 C1      NOp   1
 Largest Abelian subgroup         C1      NOp   1
 Largest concise Abelian subgroup C1      NOp   1
                         Standard orientation:                         
 ---------------------------------------------------------------------
 Center     Atomic      Atomic             Coordinates (Angstroms)
 Number     Number       Type             X           Y           Z
 ---------------------------------------------------------------------
      1          6           0        0.723176   -1.023971   -0.000002
      2          6           0       -0.656549   -1.220110   -0.000004
      3          6           0       -1.377366   -0.032769   -0.000002
      4          6           0       -1.027253    1.255038   -0.000004
      5          6           0        0.369976    1.419452   -0.000001
      6          6           0        1.231590    0.301303    0.000000
      7          1           0        1.384110   -1.886119   -0.000001
      8          1           0       -1.107794   -2.213228   -0.000004
      9          1           0        0.837855    2.407593   -0.000001
     10          7           0       -2.992698   -0.263982    0.000000
     11          7           0       -4.078671   -0.014342    0.000007
     12          8           0        2.565588    0.582047    0.000001
     13          6           0        3.500852   -0.492073    0.000003
     14          1           0        4.490171   -0.024380    0.000008
     15          1           0        3.391992   -1.116596   -0.900019
     16          1           0        3.391984   -1.116598    0.900024
 ---------------------------------------------------------------------
 Rotational constants (GHZ):      4.9417747      0.6967047      0.6130368
 Standard basis: Aug-CC-pVDZ (5D, 7F)
 There are   284 symmetry adapted basis functions of A   symmetry.
 Integral buffers will be    131072 words long.
 Raffenetti 2 integral format.
 Two-electron integral symmetry is turned on.
   284 basis functions,   496 primitive gaussians,   304 cartesian basis functions
    35 alpha electrons       35 beta electrons
       nuclear repulsion energy       455.0287857412 Hartrees.
 NAtoms=   16 NActive=   16 NUniq=   16 SFac= 1.00D+00 NAtFMM=   50 NAOKFM=F Big=F
 One-electron integrals computed using PRISM.
 NBasis=   284 RedAO= T  NBF=   284
 NBsUse=   284 1.00D-06 NBFU=   284
 Initial guess read from the read-write file.
 B after Tr=     0.000000    0.000000    0.000000
         Rot=    1.000000    0.000000    0.000000    0.000000 Ang=   0.00 deg.
 Initial guess orbital symmetries:
       Occupied  (A) (A) (A) (A) (A) (A) (A) (A) (A) (A) (A) (A)
                 (A) (A) (A) (A) (A) (A) (A) (A) (A) (A) (A) (A)
                 (A) (A) (A) (A) (A) (A) (A) (A) (A) (A) (A)
       Virtual   (A) (A) (A) (A) (A) (A) (A) (A) (A) (A) (A) (A)
                 (A) (A) (A) (A) (A) (A) (A) (A) (A) (A) (A) (A)
                 (A) (A) (A) (A) (A) (A) (A) (A) (A) (A) (A) (A)
                 (A) (A) (A) (A) (A) (A) (A) (A) (A) (A) (A) (A)
                 (A) (A) (A) (A) (A) (A) (A) (A) (A) (A) (A) (A)
                 (A) (A) (A) (A) (A) (A) (A) (A) (A) (A) (A) (A)
                 (A) (A) (A) (A) (A) (A) (A) (A) (A) (A) (A) (A)
                 (A) (A) (A) (A) (A) (A) (A) (A) (A) (A) (A) (A)
                 (A) (A) (A) (A) (A) (A) (A) (A) (A) (A) (A) (A)
                 (A) (A) (A) (A) (A) (A) (A) (A) (A) (A) (A) (A)
                 (A) (A) (A) (A) (A) (A) (A) (A) (A) (A) (A) (A)
                 (A) (A) (A) (A) (A) (A) (A) (A) (A) (A) (A) (A)
                 (A) (A) (A) (A) (A) (A) (A) (A) (A) (A) (A) (A)
                 (A) (A) (A) (A) (A) (A) (A) (A) (A) (A) (A) (A)
                 (A) (A) (A) (A) (A) (A) (A) (A) (A) (A) (A) (A)
                 (A) (A) (A) (A) (A) (A) (A) (A) (A) (A) (A) (A)
                 (A) (A) (A) (A) (A) (A) (A) (A) (A) (A) (A) (A)
                 (A) (A) (A) (A) (A) (A) (A) (A) (A) (A) (A) (A)
                 (A) (A) (A) (A) (A) (A) (A) (A) (A) (A) (A) (A)
                 (A) (A) (A) (A) (A) (A) (A) (A) (A) (A) (A) (A)
                 (A) (A) (A) (A) (A) (A) (A) (A) (A)
 Harris functional with IExCor=  402 diagonalized for initial guess.
 ExpMin= 2.97D-02 ExpMax= 1.17D+04 ExpMxC= 4.01D+02 IAcc=3 IRadAn=         0 AccDes= 0.00D+00
 HarFok:  IExCor=  402 AccDes= 0.00D+00 IRadAn=         0 IDoV= 1
 ScaDFX=  1.000000  1.000000  1.000000  1.000000
 FoFCou: FMM=F IPFlag=           0 FMFlag=      100000 FMFlg1=           0
         NFxFlg=           0 DoJE=T BraDBF=F KetDBF=T FulRan=T
         Omega=  0.000000  0.000000  1.000000  0.000000  0.000000 ICntrl=     500 IOpCl=  0
         NMat0=    1 NMatS0=    1 NMatT0=    0 NMatD0=    1 NMtDS0=    0 NMtDT0=    0
         I1Cent=           4 NGrid=           0.
 Petite list used in FoFCou.
 Requested convergence on RMS density matrix=1.00D-08 within 128 cycles.
 Requested convergence on MAX density matrix=1.00D-06.
 Requested convergence on             energy=1.00D-06.
 No special actions if energy rises.
 SCF Done:  E(RB3LYP) =  -454.976654473     A.U. after   14 cycles
             Convg  =    0.3043D-08             -V/T =  2.0064
 Calling FoFJK, ICntrl=      2127 FMM=F ISym2X=0 I1Cent= 0 IOpClX= 0 NMat=1 NMatS=1 NMatT=0.
 ***** Axes restored to original set *****
 -------------------------------------------------------------------
 Center     Atomic                   Forces (Hartrees/Bohr)
 Number     Number              X              Y              Z
 -------------------------------------------------------------------
      1        6           0.000001333    0.000008610    0.000000442
      2        6          -0.000015757   -0.000039777    0.000000902
      3        6           0.000229581    0.000017227   -0.000068566
      4        6          -0.000241625    0.000031620    0.000076812
      5        6          -0.000024989    0.000081528    0.000015432
      6        6           0.000002166   -0.000011324   -0.000001660
      7        1          -0.000003431   -0.000001421    0.000000943
      8        1          -0.000002230    0.000006810    0.000001327
      9        1          -0.000004599   -0.000005117    0.000000940
     10        7          -0.000042453   -0.000096211    0.000003988
     11        7           0.000105308   -0.000007135   -0.000032936
     12        8          -0.000000250    0.000008345    0.000000797
     13        6           0.000000258    0.000002531    0.000000164
     14        1          -0.000000262    0.000001924    0.000000267
     15        1          -0.000001326    0.000001135    0.000001167
     16        1          -0.000001723    0.000001254   -0.000000018
 -------------------------------------------------------------------
 Cartesian Forces:  Max     0.000241625 RMS     0.000057017

 GradGradGradGradGradGradGradGradGradGradGradGradGradGradGradGradGradGrad
 Berny optimization.
 Internal  Forces:  Max     0.000262697 RMS     0.000052365
 Search for a saddle point.
 Step number   2 out of a maximum of   77
 All quantities printed in internal units (Hartrees-Bohrs-Radians)
 Swaping is turned off.
 Update second derivatives using D2CorX and points    1    2
 ITU=  0  0
     Eigenvalues ---   -0.07879   0.00120   0.00355   0.01124   0.01449
     Eigenvalues ---    0.01648   0.01758   0.02128   0.02837   0.03196
     Eigenvalues ---    0.03452   0.03566   0.06197   0.08396   0.08541
     Eigenvalues ---    0.10383   0.11294   0.11848   0.12610   0.14368
     Eigenvalues ---    0.16156   0.18000   0.18182   0.19483   0.20650
     Eigenvalues ---    0.21739   0.27787   0.32282   0.32813   0.33088
     Eigenvalues ---    0.34403   0.34955   0.35371   0.35609   0.37193
     Eigenvalues ---    0.37754   0.40413   0.45497   0.48918   0.51570
     Eigenvalues ---    0.53652   1.40313
 Eigenvectors required to have negative eigenvalues:
                          R7        A17       R6        A8        A11
   1                    0.89215  -0.32729  -0.20997  -0.11609  -0.08280
                          R4        A10       A4        A7        A9
   1                   -0.07782   0.07242  -0.06660   0.06431   0.05179
 RFO step:  Lambda0=8.993587396D-09 Lambda=-8.00646825D-07.
 Linear search not attempted -- option 19 set.
 Iteration  1 RMS(Cart)=  0.00073288 RMS(Int)=  0.00000038
 Iteration  2 RMS(Cart)=  0.00000046 RMS(Int)=  0.00000001
 Variable       Old X    -DE/DX   Delta X   Delta X   Delta X     New X
                                 (Linear)    (Quad)   (Total)
    R1        2.63352   0.00003   0.00000  -0.00001  -0.00001   2.63351
    R2        2.68237   0.00002   0.00000   0.00001   0.00001   2.68238
    R3        2.05288   0.00000   0.00000   0.00001   0.00001   2.05290
    R4        2.62485   0.00004   0.00000   0.00020   0.00020   2.62505
    R5        2.06137  -0.00001   0.00000   0.00001   0.00001   2.06138
    R6        2.52194   0.00018   0.00000   0.00023   0.00023   2.52217
    R7        3.08365   0.00007   0.00000  -0.00015  -0.00015   3.08350
    R8        2.65860   0.00001   0.00000  -0.00017  -0.00017   2.65843
    R9        2.66755  -0.00001   0.00000   0.00002   0.00002   2.66757
   R10        2.06606   0.00000   0.00000  -0.00001  -0.00001   2.06605
   R11        2.57611   0.00000   0.00000  -0.00003  -0.00003   2.57608
   R12        2.10572   0.00010   0.00000   0.00007   0.00007   2.10579
   R13        2.69142   0.00000   0.00000   0.00001   0.00001   2.69143
   R14        2.06792   0.00000   0.00000   0.00000   0.00000   2.06792
   R15        2.08035   0.00000   0.00000   0.00000   0.00000   2.08034
   R16        2.08035   0.00000   0.00000   0.00000   0.00000   2.08034
    A1        2.07832   0.00005   0.00000   0.00012   0.00012   2.07844
    A2        2.08363  -0.00002   0.00000  -0.00004  -0.00004   2.08360
    A3        2.12123  -0.00002   0.00000  -0.00008  -0.00008   2.12115
    A4        1.97520   0.00003   0.00000   0.00023   0.00023   1.97543
    A5        2.13849  -0.00001   0.00000  -0.00012  -0.00012   2.13837
    A6        2.16950  -0.00002   0.00000  -0.00011  -0.00011   2.16939
    A7        2.33053  -0.00015   0.00000  -0.00076  -0.00076   2.32977
    A8        1.97424  -0.00011   0.00000  -0.00066  -0.00066   1.97357
    A9        1.97842   0.00026   0.00000   0.00142   0.00142   1.97984
   A10        1.95338   0.00011   0.00000   0.00067   0.00067   1.95405
   A11        2.11020  -0.00004   0.00000  -0.00025  -0.00025   2.10995
   A12        2.13015   0.00003   0.00000   0.00017   0.00017   2.13032
   A13        2.04284   0.00001   0.00000   0.00008   0.00008   2.04291
   A14        2.11874   0.00001   0.00000  -0.00001  -0.00001   2.11873
   A15        2.14454   0.00001   0.00000   0.00003   0.00003   2.14457
   A16        2.01991  -0.00002   0.00000  -0.00002  -0.00002   2.01989
   A17        2.77347   0.00008   0.00000   0.00093   0.00093   2.77440
   A18        2.07977   0.00001   0.00000   0.00004   0.00004   2.07982
   A19        1.84560   0.00000   0.00000  -0.00001  -0.00001   1.84559
   A20        1.94218   0.00000   0.00000   0.00000   0.00000   1.94218
   A21        1.94218   0.00000   0.00000   0.00000   0.00000   1.94218
   A22        1.90907   0.00000   0.00000   0.00000   0.00000   1.90907
   A23        1.90907   0.00000   0.00000   0.00000   0.00000   1.90907
   A24        1.91430   0.00000   0.00000   0.00001   0.00001   1.91431
    D1        0.00000   0.00000   0.00000   0.00000   0.00000   0.00000
    D2       -3.14159   0.00000   0.00000   0.00000   0.00000   3.14159
    D3        3.14159   0.00000   0.00000   0.00000   0.00000  -3.14159
    D4        0.00000   0.00000   0.00000   0.00000   0.00000   0.00000
    D5        0.00000   0.00000   0.00000   0.00000   0.00000   0.00000
    D6       -3.14159   0.00000   0.00000   0.00000   0.00000   3.14159
    D7        3.14159   0.00000   0.00000   0.00000   0.00000  -3.14159
    D8        0.00000   0.00000   0.00000   0.00000   0.00000   0.00000
    D9        0.00000   0.00000   0.00000  -0.00001  -0.00001   0.00000
   D10       -3.14159   0.00000   0.00000   0.00000   0.00000   3.14159
   D11       -3.14159   0.00000   0.00000   0.00000   0.00000   3.14159
   D12        0.00000   0.00000   0.00000   0.00000   0.00000   0.00000
   D13        0.00000   0.00000   0.00000   0.00001   0.00001   0.00000
   D14        3.14159   0.00000   0.00000   0.00001   0.00001  -3.14159
   D15        3.14158   0.00000   0.00000   0.00004   0.00004  -3.14157
   D16       -0.00002   0.00000   0.00000   0.00004   0.00004   0.00003
   D17        0.00000   0.00000   0.00000   0.00000   0.00000   0.00000
   D18       -3.14159   0.00000   0.00000   0.00000   0.00000   3.14159
   D19        0.00000   0.00000   0.00000   0.00000   0.00000   0.00000
   D20        3.14159   0.00000   0.00000   0.00000   0.00000  -3.14159
   D21       -3.14159   0.00000   0.00000   0.00000   0.00000   3.14159
   D22        0.00000   0.00000   0.00000   0.00000   0.00000   0.00000
   D23        0.00000   0.00000   0.00000   0.00000   0.00000   0.00000
   D24        3.14159   0.00000   0.00000   0.00000   0.00000  -3.14159
   D25       -3.14159   0.00000   0.00000  -0.00001  -0.00001   3.14159
   D26        1.07035   0.00000   0.00000   0.00000   0.00000   1.07035
   D27       -1.07034   0.00000   0.00000  -0.00001  -0.00001  -1.07035
         Item               Value     Threshold  Converged?
 Maximum Force            0.000263     0.000450     YES
 RMS     Force            0.000052     0.000300     YES
 Maximum Displacement     0.004294     0.001800     NO 
 RMS     Displacement     0.000733     0.001200     YES
 Predicted change in Energy=-3.958266D-07
 GradGradGradGradGradGradGradGradGradGradGradGradGradGradGradGradGradGrad

                          Input orientation:                          
 ---------------------------------------------------------------------
 Center     Atomic      Atomic             Coordinates (Angstroms)
 Number     Number       Type             X           Y           Z
 ---------------------------------------------------------------------
      1          6           0       -1.969071   -0.233764    0.191447
      2          6           0       -0.641584   -0.321136   -0.223574
      3          6           0       -0.010287    0.913845   -0.300617
      4          6           0       -0.407860    2.165163   -0.060842
      5          6           0       -1.750435    2.219868    0.355723
      6          6           0       -2.519150    1.042488    0.480306
      7          1           0       -2.558589   -1.141272    0.286555
      8          1           0       -0.162483   -1.272171   -0.460028
      9          1           0       -2.245321    3.164574    0.596418
     10          7           0        1.543766    0.808536   -0.786753
     11          7           0        2.569602    1.139006   -1.069941
     12          8           0       -3.807068    1.217305    0.891443
     13          6           0       -4.648345    0.077960    1.041848
     14          1           0       -5.616085    0.465309    1.374908
     15          1           0       -4.251413   -0.614440    1.800099
     16          1           0       -4.776676   -0.452872    0.085990
 ---------------------------------------------------------------------
                    Distance matrix (angstroms):
                    1          2          3          4          5
     1  C    0.000000
     2  C    1.393591   0.000000
     3  C    2.322922   1.389118   0.000000
     4  C    2.873304   2.502556   1.334673   0.000000
     5  C    2.468825   2.832284   2.272574   1.406779   0.000000
     6  C    1.419453   2.424906   2.630738   2.451690   1.411618
     7  H    1.086346   2.146570   3.325977   3.959650   3.457623
     8  H    2.183224   1.090833   2.197098   3.469124   3.921910
     9  H    3.433514   3.923587   3.296336   2.192505   1.093305
    10  N    3.792530   2.523705   1.631717   2.485202   3.761499
    11  N    4.906643   3.627681   2.701552   3.307047   4.675843
    12  O    2.444142   3.691931   3.991071   3.655119   2.349866
    13  C    2.828227   4.220747   4.900255   4.853251   3.668299
    14  H    3.897435   5.283871   5.868010   5.663611   4.365829
    15  H    2.818114   4.148752   4.973511   5.095311   4.046531
    16  H    2.818117   4.148756   4.973515   5.095314   4.046533
                    6          7          8          9         10
     6  C    0.000000
     7  H    2.192693   0.000000
     8  H    3.434495   2.513135   0.000000
     9  H    2.142828   4.328332   5.013881   0.000000
    10  N    4.262330   4.667233   2.710604   4.671323   0.000000
    11  N    5.320524   5.773915   3.694598   5.482989   1.114336
    12  O    1.363205   2.736325   4.615947   2.513554   5.622710
    13  C    2.403979   2.534576   4.919497   3.937019   6.497674
    14  H    3.274822   3.621311   6.010624   4.387953   7.486925
    15  H    2.736421   2.331099   4.718065   4.444570   6.503904
    16  H    2.736424   2.331101   4.718068   4.444571   6.503909
                   11         12         13         14         15
    11  N    0.000000
    12  O    6.671963   0.000000
    13  C    7.595014   1.424245   0.000000
    14  H    8.569518   2.017864   1.094298   0.000000
    15  H    7.605127   2.092459   1.100871   1.791361   0.000000
    16  H    7.605134   2.092459   1.100871   1.791361   1.800049
                   16
    16  H    0.000000
 Stoichiometry    C7H6N2O
 Framework group  C1[X(C7H6N2O)]
 Deg. of freedom    42
 Full point group                 C1      NOp   1
 Largest Abelian subgroup         C1      NOp   1
 Largest concise Abelian subgroup C1      NOp   1
                         Standard orientation:                         
 ---------------------------------------------------------------------
 Center     Atomic      Atomic             Coordinates (Angstroms)
 Number     Number       Type             X           Y           Z
 ---------------------------------------------------------------------
      1          6           0       -0.722749   -1.023684   -0.000001
      2          6           0        0.657047   -1.219284   -0.000003
      3          6           0        1.377729   -0.031737   -0.000003
      4          6           0        1.026402    1.255865   -0.000003
      5          6           0       -0.370778    1.419922   -0.000001
      6          6           0       -1.231839    0.301334    0.000000
      7          1           0       -1.383318   -1.886120   -0.000001
      8          1           0        1.108561   -2.212285   -0.000004
      9          1           0       -0.839071    2.407859    0.000000
     10          7           0        2.992866   -0.263755   -0.000003
     11          7           0        4.079234   -0.015661    0.000008
     12          8           0       -2.565957    0.581437    0.000001
     13          6           0       -3.500759   -0.493095    0.000003
     14          1           0       -4.490278   -0.025825    0.000007
     15          1           0       -3.391625   -1.117566    0.900027
     16          1           0       -3.391631   -1.117565   -0.900021
 ---------------------------------------------------------------------
 Rotational constants (GHZ):      4.9412899      0.6966042      0.6129516
 Standard basis: Aug-CC-pVDZ (5D, 7F)
 There are   284 symmetry adapted basis functions of A   symmetry.
 Integral buffers will be    131072 words long.
 Raffenetti 2 integral format.
 Two-electron integral symmetry is turned on.
   284 basis functions,   496 primitive gaussians,   304 cartesian basis functions
    35 alpha electrons       35 beta electrons
       nuclear repulsion energy       455.0121099516 Hartrees.
 NAtoms=   16 NActive=   16 NUniq=   16 SFac= 1.00D+00 NAtFMM=   50 NAOKFM=F Big=F
 One-electron integrals computed using PRISM.
 NBasis=   284 RedAO= T  NBF=   284
 NBsUse=   284 1.00D-06 NBFU=   284
 Initial guess read from the read-write file.
 B after Tr=     0.000000    0.000000    0.000000
         Rot=    1.000000    0.000000    0.000000    0.000000 Ang=   0.00 deg.
 Initial guess orbital symmetries:
       Occupied  (A) (A) (A) (A) (A) (A) (A) (A) (A) (A) (A) (A)
                 (A) (A) (A) (A) (A) (A) (A) (A) (A) (A) (A) (A)
                 (A) (A) (A) (A) (A) (A) (A) (A) (A) (A) (A)
       Virtual   (A) (A) (A) (A) (A) (A) (A) (A) (A) (A) (A) (A)
                 (A) (A) (A) (A) (A) (A) (A) (A) (A) (A) (A) (A)
                 (A) (A) (A) (A) (A) (A) (A) (A) (A) (A) (A) (A)
                 (A) (A) (A) (A) (A) (A) (A) (A) (A) (A) (A) (A)
                 (A) (A) (A) (A) (A) (A) (A) (A) (A) (A) (A) (A)
                 (A) (A) (A) (A) (A) (A) (A) (A) (A) (A) (A) (A)
                 (A) (A) (A) (A) (A) (A) (A) (A) (A) (A) (A) (A)
                 (A) (A) (A) (A) (A) (A) (A) (A) (A) (A) (A) (A)
                 (A) (A) (A) (A) (A) (A) (A) (A) (A) (A) (A) (A)
                 (A) (A) (A) (A) (A) (A) (A) (A) (A) (A) (A) (A)
                 (A) (A) (A) (A) (A) (A) (A) (A) (A) (A) (A) (A)
                 (A) (A) (A) (A) (A) (A) (A) (A) (A) (A) (A) (A)
                 (A) (A) (A) (A) (A) (A) (A) (A) (A) (A) (A) (A)
                 (A) (A) (A) (A) (A) (A) (A) (A) (A) (A) (A) (A)
                 (A) (A) (A) (A) (A) (A) (A) (A) (A) (A) (A) (A)
                 (A) (A) (A) (A) (A) (A) (A) (A) (A) (A) (A) (A)
                 (A) (A) (A) (A) (A) (A) (A) (A) (A) (A) (A) (A)
                 (A) (A) (A) (A) (A) (A) (A) (A) (A) (A) (A) (A)
                 (A) (A) (A) (A) (A) (A) (A) (A) (A) (A) (A) (A)
                 (A) (A) (A) (A) (A) (A) (A) (A) (A) (A) (A) (A)
                 (A) (A) (A) (A) (A) (A) (A) (A) (A)
 Requested convergence on RMS density matrix=1.00D-08 within 128 cycles.
 Requested convergence on MAX density matrix=1.00D-06.
 Requested convergence on             energy=1.00D-06.
 No special actions if energy rises.
 SCF Done:  E(RB3LYP) =  -454.976654842     A.U. after   18 cycles
             Convg  =    0.5732D-08             -V/T =  2.0064
 Calling FoFJK, ICntrl=      2127 FMM=F ISym2X=0 I1Cent= 0 IOpClX= 0 NMat=1 NMatS=1 NMatT=0.
 ***** Axes restored to original set *****
 -------------------------------------------------------------------
 Center     Atomic                   Forces (Hartrees/Bohr)
 Number     Number              X              Y              Z
 -------------------------------------------------------------------
      1        6          -0.000001586   -0.000000381    0.000000454
      2        6          -0.000001572    0.000002986    0.000000702
      3        6           0.000005899    0.000001299   -0.000001710
      4        6          -0.000001105   -0.000009876   -0.000000615
      5        6          -0.000000206    0.000004674    0.000000532
      6        6           0.000000188   -0.000000217   -0.000000099
      7        1          -0.000000737    0.000000366    0.000000269
      8        1           0.000000303   -0.000000195   -0.000000105
      9        1           0.000000766    0.000000093   -0.000000234
     10        7          -0.000005047   -0.000009967    0.000000775
     11        7           0.000004155    0.000004181   -0.000000978
     12        8          -0.000000223    0.000001607    0.000000259
     13        6          -0.000000152    0.000000993    0.000000115
     14        1           0.000000006    0.000001865    0.000000169
     15        1          -0.000000356    0.000001293    0.000000209
     16        1          -0.000000334    0.000001280    0.000000256
 -------------------------------------------------------------------
 Cartesian Forces:  Max     0.000009967 RMS     0.000002697

 GradGradGradGradGradGradGradGradGradGradGradGradGradGradGradGradGradGrad
 Berny optimization.
 Internal  Forces:  Max     0.000010383 RMS     0.000001995
 Search for a saddle point.
 Step number   3 out of a maximum of   77
 All quantities printed in internal units (Hartrees-Bohrs-Radians)
 Swaping is turned off.
 Update second derivatives using D2CorX and points    1    2    3
 ITU=  0  0  0
     Eigenvalues ---   -0.07833   0.00120   0.00355   0.01124   0.01449
     Eigenvalues ---    0.01648   0.01758   0.02128   0.02837   0.03196
     Eigenvalues ---    0.03452   0.03566   0.06334   0.08396   0.08541
     Eigenvalues ---    0.10383   0.11295   0.11843   0.12610   0.14116
     Eigenvalues ---    0.16277   0.18000   0.18184   0.19508   0.20640
     Eigenvalues ---    0.21736   0.27788   0.32283   0.32813   0.33088
     Eigenvalues ---    0.34405   0.34957   0.35376   0.35609   0.37193
     Eigenvalues ---    0.37763   0.40414   0.45496   0.48925   0.51591
     Eigenvalues ---    0.53645   1.40295
 Eigenvectors required to have negative eigenvalues:
                          R7        A17       R6        A8        A11
   1                    0.89439  -0.31972  -0.20970  -0.11951  -0.08261
                          R4        A10       A4        A7        A9
   1                   -0.07721   0.07232  -0.06660   0.06414   0.05537
 RFO step:  Lambda0=1.447326703D-10 Lambda= 0.00000000D+00.
 Linear search not attempted -- option 19 set.
 Iteration  1 RMS(Cart)=  0.00004557 RMS(Int)=  0.00000000
 Iteration  2 RMS(Cart)=  0.00000000 RMS(Int)=  0.00000000
 Variable       Old X    -DE/DX   Delta X   Delta X   Delta X     New X
                                 (Linear)    (Quad)   (Total)
    R1        2.63351   0.00000   0.00000   0.00000   0.00000   2.63350
    R2        2.68238   0.00000   0.00000   0.00000   0.00000   2.68238
    R3        2.05290   0.00000   0.00000   0.00000   0.00000   2.05290
    R4        2.62505   0.00000   0.00000   0.00000   0.00000   2.62505
    R5        2.06138   0.00000   0.00000   0.00000   0.00000   2.06138
    R6        2.52217   0.00000   0.00000  -0.00001  -0.00001   2.52216
    R7        3.08350   0.00000   0.00000  -0.00010  -0.00010   3.08340
    R8        2.65843   0.00000   0.00000  -0.00001  -0.00001   2.65842
    R9        2.66757   0.00000   0.00000   0.00000   0.00000   2.66757
   R10        2.06605   0.00000   0.00000   0.00000   0.00000   2.06605
   R11        2.57608   0.00000   0.00000   0.00000   0.00000   2.57608
   R12        2.10579   0.00001   0.00000   0.00001   0.00001   2.10580
   R13        2.69143   0.00000   0.00000   0.00000   0.00000   2.69143
   R14        2.06792   0.00000   0.00000   0.00000   0.00000   2.06792
   R15        2.08034   0.00000   0.00000   0.00000   0.00000   2.08034
   R16        2.08034   0.00000   0.00000   0.00000   0.00000   2.08034
    A1        2.07844   0.00000   0.00000   0.00001   0.00001   2.07845
    A2        2.08360   0.00000   0.00000   0.00000   0.00000   2.08359
    A3        2.12115   0.00000   0.00000   0.00000   0.00000   2.12114
    A4        1.97543   0.00000   0.00000   0.00002   0.00002   1.97545
    A5        2.13837   0.00000   0.00000   0.00000   0.00000   2.13837
    A6        2.16939   0.00000   0.00000  -0.00002  -0.00002   2.16936
    A7        2.32977   0.00000   0.00000  -0.00006  -0.00006   2.32971
    A8        1.97357   0.00000   0.00000   0.00004   0.00004   1.97362
    A9        1.97984   0.00000   0.00000   0.00001   0.00001   1.97985
   A10        1.95405   0.00001   0.00000   0.00006   0.00006   1.95411
   A11        2.10995   0.00000   0.00000  -0.00003  -0.00003   2.10992
   A12        2.13032   0.00000   0.00000   0.00002   0.00002   2.13034
   A13        2.04291   0.00000   0.00000   0.00001   0.00001   2.04292
   A14        2.11873   0.00000   0.00000   0.00000   0.00000   2.11873
   A15        2.14457   0.00000   0.00000   0.00000   0.00000   2.14457
   A16        2.01989   0.00000   0.00000   0.00000   0.00000   2.01989
   A17        2.77440  -0.00001   0.00000  -0.00015  -0.00015   2.77425
   A18        2.07982   0.00000   0.00000   0.00000   0.00000   2.07982
   A19        1.84559   0.00000   0.00000   0.00000   0.00000   1.84559
   A20        1.94218   0.00000   0.00000   0.00000   0.00000   1.94218
   A21        1.94218   0.00000   0.00000   0.00000   0.00000   1.94218
   A22        1.90907   0.00000   0.00000   0.00000   0.00000   1.90907
   A23        1.90907   0.00000   0.00000   0.00000   0.00000   1.90907
   A24        1.91431   0.00000   0.00000   0.00000   0.00000   1.91431
    D1        0.00000   0.00000   0.00000   0.00000   0.00000   0.00000
    D2        3.14159   0.00000   0.00000   0.00000   0.00000   3.14159
    D3       -3.14159   0.00000   0.00000   0.00000   0.00000  -3.14159
    D4        0.00000   0.00000   0.00000   0.00000   0.00000   0.00000
    D5        0.00000   0.00000   0.00000   0.00000   0.00000   0.00000
    D6        3.14159   0.00000   0.00000   0.00000   0.00000   3.14159
    D7       -3.14159   0.00000   0.00000   0.00000   0.00000   3.14159
    D8        0.00000   0.00000   0.00000   0.00000   0.00000   0.00000
    D9        0.00000   0.00000   0.00000   0.00000   0.00000   0.00000
   D10        3.14159   0.00000   0.00000   0.00000   0.00000   3.14159
   D11        3.14159   0.00000   0.00000   0.00000   0.00000   3.14159
   D12        0.00000   0.00000   0.00000   0.00000   0.00000   0.00000
   D13        0.00000   0.00000   0.00000   0.00000   0.00000   0.00000
   D14       -3.14159   0.00000   0.00000   0.00000   0.00000  -3.14159
   D15       -3.14157   0.00000   0.00000  -0.00001  -0.00001  -3.14157
   D16        0.00003   0.00000   0.00000  -0.00001  -0.00001   0.00002
   D17        0.00000   0.00000   0.00000   0.00000   0.00000   0.00000
   D18        3.14159   0.00000   0.00000   0.00000   0.00000   3.14159
   D19        0.00000   0.00000   0.00000   0.00000   0.00000   0.00000
   D20       -3.14159   0.00000   0.00000   0.00000   0.00000  -3.14159
   D21        3.14159   0.00000   0.00000   0.00000   0.00000   3.14159
   D22        0.00000   0.00000   0.00000   0.00000   0.00000   0.00000
   D23        0.00000   0.00000   0.00000   0.00000   0.00000   0.00000
   D24       -3.14159   0.00000   0.00000   0.00000   0.00000   3.14159
   D25        3.14159   0.00000   0.00000   0.00000   0.00000   3.14159
   D26        1.07035   0.00000   0.00000   0.00000   0.00000   1.07035
   D27       -1.07035   0.00000   0.00000   0.00000   0.00000  -1.07035
         Item               Value     Threshold  Converged?
 Maximum Force            0.000010     0.000450     YES
 RMS     Force            0.000002     0.000300     YES
 Maximum Displacement     0.000283     0.001800     YES
 RMS     Displacement     0.000046     0.001200     YES
 Predicted change in Energy=-1.364554D-09
 Optimization completed.
    -- Stationary point found.
                           ----------------------------
                           !   Optimized Parameters   !
                           ! (Angstroms and Degrees)  !
 --------------------------                            --------------------------
 ! Name  Definition              Value          Derivative Info.                !
 --------------------------------------------------------------------------------
 ! R1    R(1,2)                  1.3936         -DE/DX =    0.0                 !
 ! R2    R(1,6)                  1.4195         -DE/DX =    0.0                 !
 ! R3    R(1,7)                  1.0863         -DE/DX =    0.0                 !
 ! R4    R(2,3)                  1.3891         -DE/DX =    0.0                 !
 ! R5    R(2,8)                  1.0908         -DE/DX =    0.0                 !
 ! R6    R(3,4)                  1.3347         -DE/DX =    0.0                 !
 ! R7    R(3,10)                 1.6317         -DE/DX =    0.0                 !
 ! R8    R(4,5)                  1.4068         -DE/DX =    0.0                 !
 ! R9    R(5,6)                  1.4116         -DE/DX =    0.0                 !
 ! R10   R(5,9)                  1.0933         -DE/DX =    0.0                 !
[...]
 ! A23   A(14,13,16)           109.3816         -DE/DX =    0.0                 !
 ! A24   A(15,13,16)           109.6819         -DE/DX =    0.0                 !
 ! D1    D(6,1,2,3)              0.0            -DE/DX =    0.0                 !
 ! D2    D(6,1,2,8)           -180.0            -DE/DX =    0.0                 !
 ! D3    D(7,1,2,3)            180.0            -DE/DX =    0.0                 !
 ! D4    D(7,1,2,8)              0.0            -DE/DX =    0.0                 !
 ! D5    D(2,1,6,5)              0.0            -DE/DX =    0.0                 !
 ! D6    D(2,1,6,12)           180.0            -DE/DX =    0.0                 !
 ! D7    D(7,1,6,5)           -180.0            -DE/DX =    0.0                 !
 ! D8    D(7,1,6,12)             0.0            -DE/DX =    0.0                 !
 ! D9    D(1,2,3,4)             -0.0001         -DE/DX =    0.0                 !
 ! D10   D(1,2,3,10)           179.9999         -DE/DX =    0.0                 !
 ! D11   D(8,2,3,4)            179.9999         -DE/DX =    0.0                 !
 ! D12   D(8,2,3,10)            -0.0001         -DE/DX =    0.0                 !
 ! D13   D(2,3,4,5)              0.0001         -DE/DX =    0.0                 !
 ! D14   D(10,3,4,5)          -179.9999         -DE/DX =    0.0                 !
 ! D15   D(2,3,10,11)          180.0015         -DE/DX =    0.0                 !
 ! D16   D(4,3,10,11)            0.0015         -DE/DX =    0.0                 !
 ! D17   D(3,4,5,6)             -0.0001         -DE/DX =    0.0                 !
 ! D18   D(3,4,5,9)            180.0            -DE/DX =    0.0                 !
 ! D19   D(4,5,6,1)              0.0            -DE/DX =    0.0                 !
 ! D20   D(4,5,6,12)           180.0001         -DE/DX =    0.0                 !
 ! D21   D(9,5,6,1)            180.0            -DE/DX =    0.0                 !
 ! D22   D(9,5,6,12)             0.0            -DE/DX =    0.0                 !
 ! D23   D(1,6,12,13)            0.0001         -DE/DX =    0.0                 !
 ! D24   D(5,6,12,13)         -179.9999         -DE/DX =    0.0                 !
 ! D25   D(6,12,13,14)         179.9998         -DE/DX =    0.0                 !
 ! D26   D(6,12,13,15)          61.3264         -DE/DX =    0.0                 !
 ! D27   D(6,12,13,16)         -61.3268         -DE/DX =    0.0                 !
 --------------------------------------------------------------------------------
 GradGradGradGradGradGradGradGradGradGradGradGradGradGradGradGradGradGrad

 1\1\GINC-LC06-1-7\Freq\RB3LYP\Aug-CC-pVDZ\C7H6N2O1\UBUNTU\19-Dec-2018\
 0\\#N Geom=AllCheck Guess=TCheck SCRF=Check GenChk RB3LYP/Aug-CC-pVDZ 
 Freq\\4-CH3O-C6H3\\0,1\C,-1.9690705422,-0.2337637447,0.1914468439\C,-0
 .6415841759,-0.3211355716,-0.2235737704\C,-0.0102868763,0.913845209,-0
 .3006169969\C,-0.4078604068,2.1651625024,-0.0608424967\C,-1.7504353081
 ,2.2198677323,0.3557231934\C,-2.5191499023,1.0424881894,0.4803055514\H
 ,-2.5585889662,-1.1412717643,0.2865549221\H,-0.1624827243,-1.272170620
 2,-0.4600282155\H,-2.2453212539,3.1645741347,0.596417987\N,1.543766155
 ,0.8085364906,-0.7867533827\N,2.5696023262,1.1390060516,-1.0699414591\
 O,-3.8070684625,1.2173046094,0.8914430081\C,-4.6483450485,0.0779602396
 ,1.0418480517\H,-5.6160849861,0.4653087131,1.3749079293\H,-4.251413373
 7,-0.6144397897,1.8000988728\H,-4.7766764546,-0.4528723816,0.085989961
 4\\Version=EM64L-G09RevB.01\State=1-A\HF=-454.9766548\RMSD=8.146e-09\R
 MSF=2.700e-06\ZeroPoint=0.1142652\Thermal=0.1232568\Dipole=-0.2537463,
 -1.6580002,-0.0785201\DipoleDeriv=-0.5237203,-0.050593,0.0958761,0.379
 9466,-0.0574092,-0.1034329,0.1364594,0.0285005,-0.2344021,0.4088321,0.
 13831,-0.1322587,0.2313705,0.2041107,-0.0455032,-0.1234821,-0.0169783,
 -0.0291133,-0.1297618,-0.389103,0.0148239,-0.3552176,0.6488332,0.16639
 92,0.0180798,0.1768188,0.0494315,-0.0559618,-0.1025811,-0.0823341,0.27
 22382,-1.1098904,-0.1604157,-0.0470695,-0.0455977,-0.2829466,-0.274325
 8,-0.2268397,0.0203083,-0.658071,0.3509736,0.2477681,-0.0203247,0.1156
 354,-0.1211506,1.7314871,0.2002702,-0.4649269,-0.1809741,0.1159641,0.0
 520001,-0.5008038,-0.0647966,0.3000196,0.042622,-0.0647877,0.0251172,-
 0.0770554,-0.003595,0.0096522,0.0239535,0.0058896,0.137721,0.0101511,0
 .0947851,0.0490677,0.0275956,-0.0581674,-0.0272423,0.0427613,-0.047819
 1,0.1235281,-0.0102058,0.0580551,0.0372828,0.1143315,-0.0365337,-0.047
 3013,0.0425537,-0.0300742,0.0777247,1.5890473,0.1490247,-0.4426814,0.6
 187617,-0.4042957,-0.2370031,-0.3984476,-0.0931085,0.2118917,-1.384421
 3,0.2785675,0.4602609,-0.5517853,0.2963195,0.1940049,0.3820106,-0.0604
 13,-0.0908529,-2.0141815,-0.3571871,0.5070107,-0.2248756,-0.4390983,0.
 0510634,0.5194332,0.0915824,-0.4003041,0.7100957,0.2054195,-0.0986661,
 0.5877796,0.5382574,-0.1600108,-0.0626175,-0.0428285,0.3400591,-0.1225
 544,0.0038089,0.0643809,0.059264,0.0432065,-0.0222293,0.0695948,-0.005
 2482,0.0645672,-0.0005408,0.0655222,-0.0815793,-0.1043399,-0.0590189,0
 .1025023,-0.0170706,0.0860643,-0.0464121,0.0234383,-0.0026715,0.028318
 1,-0.1389688,-0.0296564,-0.0202515,-0.0650306,-0.0976272,-0.0997612\Po
 lar=170.1514916,4.4873998,107.921459,-32.209892,2.7966569,73.7929982\P
 G=C01 [X(C7H6N2O1)]\NImag=1\\0.65370169,0.07221207,0.67330926,-0.15681
 027,0.03004809,0.17064510,-0.32508535,-0.01638368,0.07975169,0.6144134
 2,0.04118180,-0.11756795,-0.01806567,-0.03302609,0.73194276,0.08517767
 ,-0.00042590,-0.08592882,-0.15307900,0.06732735,0.17827386,-0.05410609
 ,-0.00292537,0.01973745,-0.09082956,-0.10420643,0.00371058,0.16550471,
 -0.06064776,0.01750096,0.01917789,-0.07288078,-0.32987458,-0.00436137,
 0.08024244,0.74671807,0.01429639,0.00148899,0.00696354,0.00666507,0.00
 523705,-0.04821582,-0.01781321,0.03800150,0.09173632,-0.02868189,0.016
 29413,0.00879975,0.04094894,0.02159692,-0.00641485,-0.08338155,0.11252
 290,0.02538405,0.44253581,0.02261078,-0.00725198,-0.00714320,-0.010389
 03,-0.03256573,-0.00114645,0.02073546,-0.33296245,-0.03442475,-0.15321
 097,0.42536633,0.00939548,-0.00520638,-0.00834678,-0.00943157,-0.01094
 739,0.01523081,0.01673450,-0.06255275,-0.04617744,-0.13071776,0.081097
 17,0.11078081,0.04798093,-0.02130617,-0.01398465,-0.03848764,-0.025954
 36,0.00911779,-0.03005542,0.05221819,0.01199538,-0.28615851,0.01961416
 ,0.07615521,0.59292208,0.01088590,-0.04602293,-0.00851247,-0.02517583,
 -0.02040616,0.00586190,0.04112151,-0.02299754,-0.01411159,0.03855386,-
 0.04609596,-0.01204280,-0.05266870,0.64189249,-0.01095029,0.00135195,0
 .01238100,0.00919149,0.00610039,-0.00299161,0.01094769,-0.01751106,-0.
 01198243,0.07794180,-0.00623963,-0.06813686,-0.14800729,0.06475467,0.1
 7757852,-0.13273488,0.06673842,0.02611288,-0.01752211,0.03129658,0.008
 87631,0.00096234,-0.01267594,-0.00558059,-0.04342388,-0.00556279,0.016
 90615,-0.12979137,-0.10047324,0.00862558,0.59095076,0.00761533,-0.2586
 0263,-0.02029488,0.07577962,0.02970321,-0.02059279,-0.02509668,-0.0446
 1700,0.00474409,-0.05194625,0.02597297,0.01709679,-0.03972106,-0.25887
 553,-0.00556142,0.01917784,0.66115367,0.02053992,-0.03841295,-0.077962
 49,0.01307069,-0.00696247,-0.00284342,-0.00675185,0.00093817,-0.011190
 92,0.01253294,0.00288421,0.00988735,0.01435313,0.01305439,-0.07390506,
 -0.12846079,0.04081120,0.20905058,-0.13678664,-0.13139287,0.02055354,-
 0.01240277,-0.02563965,0.00217309,-0.00225564,0.00247405,0.00239592,-0
 .00051696,-0.00057450,0.00005813,-0.00062756,0.00290698,0.00158974,0.0
 1127208,0.00962997,-0.00179071,0.14762043,-0.13079801,-0.26106812,0.01
 823457,0.00361136,0.00528112,-0.00085159,0.00035755,0.00128737,-0.0004
 4063,0.00095345,0.00041793,-0.00023884,0.00329088,-0.00369120,-0.00170
 187,-0.01854799,-0.01501442,0.00403622,0.14226485,0.27075131,0.0206095
 5,0.01841686,-0.03387674,0.00493010,0.00811189,0.00182928,0.00219652,-
 0.00108943,0.00402663,0.00020215,0.00022968,-0.00019120,0.00162597,-0.
 00158430,0.00301869,-0.00444661,-0.00459866,0.00339554,-0.02517988,-0.
 02011859,0.02750898,-0.00620365,0.02539772,0.00561340,-0.10747861,0.10
 511587,0.03287923,0.00903999,-0.01672215,-0.00413017,0.00107541,0.0002
 1403,0.00136314,-0.00126335,-0.00157432,0.00004002,-0.00299154,-0.0014
 4759,0.00340769,0.00084306,-0.00019794,-0.00170089,0.10667171,-0.00137
 959,0.00356497,0.00035321,0.10553471,-0.27039837,-0.05476161,0.0155064
 4,-0.01741952,-0.00646030,-0.00445396,-0.00357194,0.00051393,-0.001060
 92,0.00096954,0.00047756,-0.00122309,0.00203931,-0.00024135,0.00026645
 ,0.00056890,0.00040998,-0.11463935,0.28297910,0.00308945,-0.00785262,0
 .00261599,0.03291933,-0.05463343,-0.04775188,-0.00109236,0.00341611,0.
 00136372,0.00092242,-0.00091664,0.00508715,0.00008895,0.00063473,-0.00
 061557,0.00342909,-0.00017214,0.00750865,-0.00165722,0.00055237,-0.004
 08701,-0.03683428,0.05975378,0.03865067,-0.00089043,-0.00245072,0.0017
 5465,-0.00107142,-0.00025961,0.00015105,-0.00206986,0.00516951,0.00408
 887,-0.01842034,0.01865986,0.00659064,-0.09807117,0.10472633,0.0285172
 3,0.00759388,-0.01539685,-0.00192844,0.00036252,-0.00082157,-0.0002167
 0,-0.00000780,0.00028389,-0.00056321,0.11090113,-0.00395033,-0.0025706
 6,0.00044136,-0.00041976,0.00087551,0.00025814,-0.00049493,0.00251879,
 -0.00052377,0.00189369,0.00485273,0.00012726,0.09762126,-0.26445189,-0
 .05133241,0.01422952,-0.02149643,-0.00695568,0.00065019,-0.00089700,-0
 .00027512,0.00017776,-0.00006117,0.00012193,-0.11047007,0.27889494,0.0
 0161334,-0.00001768,0.00509324,0.00013517,0.00020939,-0.00052024,0.003
 55577,-0.00226018,0.00838187,0.00501036,-0.00501034,-0.00466121,0.0278
 4699,-0.05350939,-0.05079921,0.00086452,0.00212236,0.00597265,-0.00007
 794,0.00017575,-0.00005142,-0.00057287,0.00008945,-0.00174872,-0.03714
 453,0.05790897,0.04050550,0.01718321,-0.02450863,-0.00556582,-0.071976
 97,-0.01384412,0.01549789,0.15384377,-0.08288161,-0.05761525,-0.050821
 99,0.08816856,0.01759415,0.00721982,0.00291365,0.00286437,-0.00975449,
 0.01380937,0.00540337,-0.00183104,0.00089142,0.00154982,0.00183059,0.0
 0334588,-0.00053396,-0.00025367,-0.00081942,0.00019038,1.09080897,-0.0
 0430772,-0.00157115,0.00055374,-0.02270553,0.01595589,0.01007764,-0.02
 934810,-0.00857671,0.00900408,0.01145641,-0.06097720,-0.00732445,0.005
 77536,0.02062648,-0.00130247,-0.00030706,-0.01300510,-0.00147317,-0.00
 177435,0.00055232,0.00031744,0.00333137,0.00253235,-0.00069315,-0.0002
 3842,-0.00039062,-0.00002263,0.38783241,0.17186787,-0.00366146,0.00674
 484,0.00831689,0.01466100,0.00736278,-0.02094222,-0.05256994,0.0254074
 6,0.00981566,0.01036565,-0.03083173,-0.02660130,0.00313254,-0.00042473
 ,0.01466938,0.00407175,-0.00580029,0.00183132,0.00129858,-0.00049959,0
 .00250732,-0.00053551,-0.00069761,-0.00084492,0.00024617,0.00015563,0.
 00056173,-0.28690455,-0.10595879,0.11312644,-0.00608381,0.00393195,0.0
 0172328,0.00883967,0.00583497,0.00036189,-0.05795206,-0.01315128,0.015
 95313,0.01718849,0.00947491,-0.00183352,-0.00487278,-0.01520359,-0.001
 55485,0.00530878,-0.00066724,-0.00204605,-0.00006924,-0.00010470,-0.00
 033548,-0.00084810,-0.00196351,0.00002318,0.00041792,0.00076262,-0.000
 10517,-1.14562222,-0.35308789,0.31380981,1.19034454,0.00010748,-0.0001
 8526,0.00010698,0.00269544,-0.00371617,-0.00195169,-0.00241391,-0.0102
 1704,-0.00005024,0.00960180,0.02826451,-0.00105877,-0.00124621,-0.0125
 4530,-0.00030401,0.00069327,0.00476004,0.00034518,0.00041313,-0.000183
 41,-0.00003716,-0.00130122,-0.00132265,0.00028969,0.00033059,0.0004175
 1,-0.00004650,-0.37039064,-0.13038508,0.10242185,0.36388523,0.12649730
 ,0.00136260,-0.00106545,-0.00218792,0.00006692,-0.00291400,0.00793119,
 0.01696616,0.00324051,-0.00673303,-0.00182319,-0.00101974,0.00874737,-
 0.00023833,0.00397247,-0.00482140,-0.00191676,0.00076294,-0.00049927,-
 0.00028670,0.00012160,-0.00103254,0.00008588,0.00049268,-0.00014654,-0
 .00014670,-0.00017906,-0.00013424,0.31217807,0.09711981,-0.09940362,-0
 .32853790,-0.10016644,0.09746421,-0.03141755,0.01348502,0.01361476,0.0
 0323762,0.00064488,0.00084476,-0.01301085,0.00736088,0.00520189,0.0111
 2929,-0.00968794,-0.00340542,-0.05651225,-0.01091762,0.01874307,-0.247
 51122,0.04515927,0.06662881,-0.00062616,-0.00017537,-0.00053136,-0.001
 02469,-0.00013418,0.00031068,0.00132518,0.00105938,-0.00108980,0.01344
 815,0.00303709,-0.00464230,-0.00839075,-0.00248837,0.00259598,0.476343
 18,0.03834420,-0.00056610,-0.01263876,-0.00499183,-0.00824014,0.000206
 67,0.00332002,-0.00110641,-0.00128193,-0.00338109,-0.00216181,0.000549
 86,-0.03767824,0.01051638,0.01178194,0.00910701,-0.11421627,-0.0094120
 1,-0.00180130,0.00097033,0.00086080,0.00143729,0.00010785,-0.00043313,
 0.00018071,0.00196211,0.00037057,-0.00139431,0.00349770,0.00100540,-0.
 00132301,-0.00173603,0.00016197,0.08156326,0.34168220,0.01595804,-0.00
 502045,0.00350101,0.00031222,-0.00152017,0.00555670,0.00482148,-0.0025
 2103,-0.00001545,-0.00281006,0.00248262,0.00409240,0.01621974,0.003581
 96,0.00337850,0.06323078,-0.02046020,-0.06527319,-0.00068452,0.0003624
 0,-0.00206213,0.00045903,0.00004849,-0.00010598,-0.00117229,0.00010131
 ,-0.00218778,-0.00506087,-0.00035289,-0.00111713,0.00270670,0.00051935
 ,0.00006551,-0.11806630,0.00099460,0.10223600,0.00216671,-0.00049357,-
 0.00127839,-0.00110305,-0.00228652,0.00022833,0.00379894,-0.00204538,-
 0.00070473,-0.00245902,0.00072108,0.00099412,0.00093998,0.00576399,0.0
 0116577,-0.04341457,-0.03140687,0.00844269,-0.00249395,-0.00091756,0.0
 0075207,0.00044526,-0.00008752,-0.00013998,0.00011925,-0.00039562,-0.0
 0022381,-0.00416423,-0.00024909,0.00065329,0.00210108,0.00039410,-0.00
 036597,-0.11537100,-0.04245578,0.01387208,0.55524286,0.00893446,0.0008
 5084,-0.00248300,-0.00145342,-0.00149026,0.00027230,0.00457760,-0.0011
 8550,-0.00171517,-0.00090029,0.00162807,0.00037635,0.00500047,0.001802
 33,-0.00164250,-0.01313700,0.00712182,0.00528141,0.00158230,-0.0006881
 4,-0.00057253,0.00039212,-0.00002282,-0.00012379,0.00016660,0.00006745
 ,0.00000151,-0.00490354,-0.00083176,0.00160864,0.00283184,0.00082662,-
 0.00086394,-0.07097448,-0.18030321,0.01013092,-0.08130329,0.49286036,-
 0.00038991,0.00040605,-0.00169605,0.00030721,0.00052752,0.00030101,-0.
 00008033,0.00031455,0.00218366,0.00084074,-0.00012060,0.00029315,0.001
 09405,-0.00187654,0.00245949,0.01016486,0.01088006,-0.00829114,0.00098
 782,0.00019345,-0.00004162,-0.00009478,0.00002317,0.00004705,-0.000170
 95,0.00017375,-0.00042111,0.00021458,0.00018245,-0.00200504,-0.0001363
 0,-0.00011701,0.00081667,0.01118400,0.00139185,-0.06033894,-0.00501049
 ,0.01821805,0.56715235,0.00015967,-0.00025061,0.00006064,0.00012892,0.
 00014859,0.00002095,-0.00021281,-0.00019197,0.00005726,-0.00020091,-0.
 00028240,0.00000494,-0.00088608,0.00048980,0.00038653,0.00165011,-0.00
 330466,-0.00069966,-0.00002246,0.00002880,-0.00012723,-0.00003784,-0.0
 0000377,0.00002141,-0.00000052,-0.00005101,-0.00000260,0.00046791,0.00
 019305,-0.00013748,-0.00035875,-0.00014266,0.00009887,-0.02607241,-0.0
 0074440,0.00811004,-0.25485425,0.09080424,0.07153031,0.28330397,0.0001
 9548,-0.00120384,-0.00021434,-0.00024172,0.00035491,0.00009323,0.00002
 376,-0.00002729,-0.00001304,-0.00005796,-0.00022199,0.00000614,-0.0013
 4530,0.00052751,0.00044077,-0.00162465,-0.00424855,0.00006123,0.000486
 78,0.00074297,-0.00003705,-0.00004780,-0.00001204,0.00001036,0.0000272
 2,-0.00002968,-0.00001174,0.00016528,0.00025274,-0.00002298,-0.0001447
 9,-0.00012359,0.00003195,-0.03719110,0.00445606,0.01175802,0.10418897,
 -0.08747835,-0.03552030,-0.09116893,0.09620378,0.00010284,-0.00007743,
 0.00039621,-0.00001627,-0.00002621,0.00015417,0.00007780,0.00005280,0.
 00001395,0.00002641,0.00007492,-0.00009866,0.00021322,-0.00012142,0.00
 014776,-0.00054126,0.00057584,0.00060327,-0.00008413,0.00010326,-0.000
 41124,0.00001736,-0.00000308,0.00002743,0.00000484,0.00001221,0.000006
 38,-0.00014049,-0.00003168,0.00000004,0.00009902,0.00003143,-0.0000196
 1,0.00467462,0.00058946,-0.00075436,0.07279202,-0.03141872,-0.07462496
 ,-0.08146827,0.03271765,0.07353722,0.00048038,0.00112072,0.00011843,-0
 .00099612,-0.00040697,-0.00026343,0.00042368,0.00057782,-0.00042590,0.
 00049237,-0.00020879,-0.00023536,-0.00116554,-0.00061279,-0.00032213,0
 .00467576,-0.00112217,0.00071200,-0.00083073,-0.00024795,0.00139092,0.
 00000520,0.00000488,0.00006343,0.00005447,0.00006855,0.00010526,-0.000
 23288,0.00011901,0.00052837,0.00002310,-0.00003156,-0.00018092,0.00412
 642,-0.02119743,0.01803244,-0.09019376,0.06508474,-0.07334804,-0.00817
 435,0.01489355,-0.01973080,0.09169430,-0.00059385,0.00062226,-0.000048
 94,0.00002512,0.00012291,-0.00003710,-0.00076532,0.00050194,0.00022161
 ,0.00053057,-0.00034599,-0.00031658,-0.00146308,-0.00058383,-0.0001083
 0,0.00646542,-0.00042135,-0.00162473,0.00020030,0.00056510,-0.00011297
 ,-0.00007457,0.00002223,0.00001468,0.00009697,0.00014726,0.00015526,0.
 00089704,0.00022659,-0.00011823,-0.00057332,-0.00017861,0.00011040,-0.
 00464627,-0.02950459,0.02032987,0.05971597,-0.13634413,0.10387715,0.00
 510475,-0.00531913,0.00817005,-0.06058640,0.16013018,-0.00006452,0.000
 82283,0.00003166,0.00016941,-0.00041198,0.00009927,0.00028440,-0.00030
 708,-0.00016947,-0.00039820,0.00014333,0.00014762,0.00076097,0.0001908
 0,-0.00023357,-0.00278576,0.00076922,0.00096907,0.00046167,-0.00067247
 ,-0.00074849,0.00003656,0.00002262,-0.00002947,-0.00004379,-0.00009714
 ,-0.00001358,-0.00038860,-0.00017434,0.00008637,0.00017123,0.00008336,
 -0.00004510,0.00602483,0.00499456,0.00168598,-0.06970446,0.10622446,-0
 .17343512,0.00350558,-0.00708523,0.00787610,0.07368528,-0.12058972,0.1
 8110649,0.00031770,0.00053157,-0.00020136,-0.00061499,-0.00019587,0.00
 071775,0.00030039,0.00063109,0.00023189,0.00069475,-0.00028241,-0.0001
 7282,-0.00117115,-0.00073592,0.00082130,0.00473036,-0.00106203,-0.0034
 1374,-0.00163492,0.00041277,-0.00071894,-0.00005564,0.00000364,-0.0000
 4693,0.00001087,0.00013819,-0.00010506,-0.00014492,0.00027347,-0.00031
 591,-0.00002588,-0.00010648,0.00014198,-0.00967297,-0.01898509,-0.0159
 2851,-0.05076024,-0.00670235,-0.01709276,0.00510980,0.01184122,0.02397
 309,-0.00038230,-0.00433334,-0.01171462,0.05329914,-0.00041023,0.00076
 233,0.00048541,0.00002144,0.00002304,0.00003126,-0.00063406,0.00045690
 ,0.00032409,0.00054679,-0.00034752,-0.00007954,-0.00107629,-0.00066440
 ,0.00079639,0.00584369,-0.00025375,-0.00232965,0.00030767,0.00040494,0
 .00007916,-0.00006122,0.00002425,0.00003123,-0.00000447,0.00016116,-0.
 00015480,0.00071867,0.00022568,-0.00035265,-0.00050219,-0.00017285,0.0
 0019431,-0.01609444,-0.02535808,-0.02043480,-0.00914291,-0.09681331,-0
 .09855361,-0.00062880,-0.00387352,-0.01064909,0.00254482,0.01035916,0.
 01608677,0.01857153,0.11506598,-0.00026882,-0.00120077,0.00005414,0.00
 034652,0.00060494,-0.00018229,-0.00072466,0.00005390,-0.00000078,0.000
 13779,-0.00005886,-0.00005322,-0.00037368,0.00013232,-0.00014763,0.001
 44987,-0.00028211,0.00074707,0.00024261,0.00074396,0.00021594,-0.00003
 379,-0.00002093,0.00002943,0.00003318,0.00006261,0.00001615,0.00071690
 ,0.00007839,-0.00000093,-0.00029897,-0.00006601,-0.00000168,-0.0020882
 2,0.00085815,0.01133885,-0.02147254,-0.10329400,-0.25239941,-0.0013612
 9,-0.00221468,-0.00685371,-0.00012954,-0.00992246,-0.01732775,0.023824
 65,0.11452554,0.26456581\\0.00000158,0.00000040,-0.00000045,0.00000157
 ,-0.00000295,-0.00000070,-0.00000590,-0.00000136,0.00000170,0.00000111
 ,0.00000988,0.00000061,0.00000018,-0.00000466,-0.00000052,-0.00000018,
 0.00000022,0.00000009,0.00000074,-0.00000036,-0.00000027,-0.00000030,0
 .00000019,0.00000010,-0.00000076,-0.00000009,0.00000023,0.00000508,0.0
 0000997,-0.00000078,-0.00000419,-0.00000419,0.00000099,0.00000022,-0.0
 0000161,-0.00000026,0.00000017,-0.00000099,-0.00000012,0.,-0.00000187,
 -0.00000017,0.00000036,-0.00000129,-0.00000021,0.00000033,-0.00000128,
 -0.00000026\\\@


 Cherishing children is the mark of a civilized society.
 -- Joan Ganz Cooney
 Job cpu time:  0 days  1 hours 15 minutes 31.7 seconds.
 File lengths (MBytes):  RWF=    127 Int=      0 D2E=      0 Chk=      7 Scr=      1
 Normal termination of Gaussian 09 at Wed Dec 19 06:23:05 2018.
