 Entering Gaussian System, Link 0=/home/ubuntu/g09/g09
 Input=4-HOOC-C6H3-TS.gjf
 Output=4-HOOC-C6H3-TS.log
 Initial command:
 /home/ubuntu/g09/l1.exe /home/ubuntu/g09/Gau-30752.inp -scrdir=/home/ubuntu/g09/
 Entering Link 1 = /home/ubuntu/g09/l1.exe PID=     30754.
  
 Copyright (c) 1988,1990,1992,1993,1995,1998,2003,2009,2010,
            Gaussian, Inc.  All Rights Reserved.
  
 This is part of the Gaussian(R) 09 program.  It is based on
 the Gaussian(R) 03 system (copyright 2003, Gaussian, Inc.),
 the Gaussian(R) 98 system (copyright 1998, Gaussian, Inc.),
 the Gaussian(R) 94 system (copyright 1995, Gaussian, Inc.),
 the Gaussian 92(TM) system (copyright 1992, Gaussian, Inc.),
 the Gaussian 90(TM) system (copyright 1990, Gaussian, Inc.),
 the Gaussian 88(TM) system (copyright 1988, Gaussian, Inc.),
 the Gaussian 86(TM) system (copyright 1986, Carnegie Mellon
 University), and the Gaussian 82(TM) system (copyright 1983,
 Carnegie Mellon University). Gaussian is a federally registered
 trademark of Gaussian, Inc.
  
 This software contains proprietary and confidential information,
 including trade secrets, belonging to Gaussian, Inc.
  
 This software is provided under written license and may be
 used, copied, transmitted, or stored only in accord with that
 written license.
  
 The following legend is applicable only to US Government
 contracts under FAR:
  
                    RESTRICTED RIGHTS LEGEND
  
 Use, reproduction and disclosure by the US Government is
 subject to restrictions as set forth in subparagraphs (a)
 and (c) of the Commercial Computer Software - Restricted
 Rights clause in FAR 52.227-19.
  
 Gaussian, Inc.
 340 Quinnipiac St., Bldg. 40, Wallingford CT 06492
  
  
 ---------------------------------------------------------------
 Warning -- This program may not be used in any manner that
 competes with the business of Gaussian, Inc. or will provide
 assistance to any competitor of Gaussian, Inc.  The licensee
 of this program is prohibited from giving any competitor of
 Gaussian, Inc. access to this program.  By using this program,
 the user acknowledges that Gaussian, Inc. is engaged in the
 business of creating and licensing software in the field of
 computational chemistry and represents and warrants to the
 licensee that it is not a competitor of Gaussian, Inc. and that
 it will not use this program in any manner prohibited above.
 ---------------------------------------------------------------
  

 Cite this work as:
 Gaussian 09, Revision B.01,
 M. J. Frisch, G. W. Trucks, H. B. Schlegel, G. E. Scuseria, 
 M. A. Robb, J. R. Cheeseman, G. Scalmani, V. Barone, B. Mennucci, 
 G. A. Petersson, H. Nakatsuji, M. Caricato, X. Li, H. P. Hratchian, 
 A. F. Izmaylov, J. Bloino, G. Zheng, J. L. Sonnenberg, M. Hada, 
 M. Ehara, K. Toyota, R. Fukuda, J. Hasegawa, M. Ishida, T. Nakajima, 
 Y. Honda, O. Kitao, H. Nakai, T. Vreven, J. A. Montgomery, Jr., 
 J. E. Peralta, F. Ogliaro, M. Bearpark, J. J. Heyd, E. Brothers, 
 K. N. Kudin, V. N. Staroverov, T. Keith, R. Kobayashi, J. Normand, 
 K. Raghavachari, A. Rendell, J. C. Burant, S. S. Iyengar, J. Tomasi, 
 M. Cossi, N. Rega, J. M. Millam, M. Klene, J. E. Knox, J. B. Cross, 
 V. Bakken, C. Adamo, J. Jaramillo, R. Gomperts, R. E. Stratmann, 
 O. Yazyev, A. J. Austin, R. Cammi, C. Pomelli, J. W. Ochterski, 
 R. L. Martin, K. Morokuma, V. G. Zakrzewski, G. A. Voth, 
 P. Salvador, J. J. Dannenberg, S. Dapprich, A. D. Daniels, 
 O. Farkas, J. B. Foresman, J. V. Ortiz, J. Cioslowski, 
 and D. J. Fox, Gaussian, Inc., Wallingford CT, 2010.
 
 ******************************************
 Gaussian 09:  EM64L-G09RevB.01 12-Aug-2010
                19-Dec-2018 
 ******************************************
 %chk=4-HOOC-C6H3-TS.chk
 %mem=500MW
 %nproc=7
 Will use up to    7 processors via shared memory.
 ---------------------------------------------------------
 # rb3lyp/aug-cc-pVDZ opt=(ts,noeigen,calcfc) freq=noraman
 ---------------------------------------------------------
 1/5=1,10=4,11=1,14=-1,18=20,26=3,38=1/1,3;
 2/9=110,12=2,17=6,18=5,40=1/2;
 3/5=16,7=10,11=2,16=1,25=1,30=1,71=2,74=-5,116=1/1,2,3;
 4//1;
 5/5=2,38=5/2;
 8/6=4,10=90,11=11/1;
 11/6=1,8=1,9=11,15=111,16=1/1,2,10;
 10/6=1,7=6,13=1/2;
 6/7=2,8=2,9=2,10=2,28=1/1;
 7/10=1,18=20,25=1/1,2,3,16;
 1/5=1,10=4,11=1,14=-1,18=20/3(2);
 2/9=110/2;
 99//99;
 2/9=110/2;
 3/5=16,7=10,11=2,16=1,25=1,30=1,71=1,74=-5,116=1/1,2,3;
 4/5=5,16=3/1;
 5/5=2,38=5/2;
 7//1,2,3,16;
 1/5=1,11=1,14=-1,18=20/3(-5);
 2/9=110/2;
 6/7=2,8=2,9=2,10=2,19=2,28=1/1;
 99/9=1/99;
 -----------
 4-HOOC-C6H3
 -----------
 Symbolic Z-matrix:
 Charge =  0 Multiplicity = 1
 C                    -1.41853  -1.46834  -1.05883 
 C                    -0.01468  -1.23897  -1.10411 
 C                     0.2468    0.06034  -0.88447 
 C                    -0.54065   1.18723  -0.63121 
 C                    -1.89878   0.90187  -0.59897 
 C                    -2.33428  -0.43145  -0.81392 
 H                    -1.82307  -2.46985  -1.21543 
 H                    -0.14219   2.18964  -0.47396 
 H                    -2.62182   1.69125  -0.41093 
 N                     1.80857   0.36489  -0.92594 
 N                     2.91349   0.27331  -1.01093 
 C                    -3.79046  -0.76843  -0.7847 
 O                    -4.25465  -1.87486  -0.95953 
 O                    -4.58433   0.31265  -0.54259 
 H                    -5.49781  -0.01538  -0.54766 
 

 GradGradGradGradGradGradGradGradGradGradGradGradGradGradGradGradGradGrad
 Berny optimization.
 Initialization pass.
                           ----------------------------
                           !    Initial Parameters    !
                           ! (Angstroms and Degrees)  !
 --------------------------                            --------------------------
 ! Name  Definition              Value          Derivative Info.                !
 --------------------------------------------------------------------------------
 ! R1    R(1,2)                  1.4232         calculate D2E/DX2 analytically  !
 ! R2    R(1,6)                  1.4049         calculate D2E/DX2 analytically  !
 ! R3    R(1,7)                  1.0914         calculate D2E/DX2 analytically  !
 ! R4    R(2,3)                  1.3434         calculate D2E/DX2 analytically  !
 ! R5    R(3,4)                  1.3979         calculate D2E/DX2 analytically  !
 ! R6    R(3,10)                 1.5917         calculate D2E/DX2 analytically  !
 ! R7    R(4,5)                  1.3882         calculate D2E/DX2 analytically  !
 ! R8    R(4,8)                  1.0901         calculate D2E/DX2 analytically  !
 ! R9    R(5,6)                  1.419          calculate D2E/DX2 analytically  !
 ! R10   R(5,9)                  1.0869         calculate D2E/DX2 analytically  !
 ! R11   R(6,12)                 1.4949         calculate D2E/DX2 analytically  !
 ! R12   R(10,11)                1.112          calculate D2E/DX2 analytically  !
 ! R13   R(12,13)                1.2125         calculate D2E/DX2 analytically  !
 ! R14   R(12,14)                1.3629         calculate D2E/DX2 analytically  !
 ! R15   R(14,15)                0.9706         calculate D2E/DX2 analytically  !
 ! A1    A(2,1,6)              121.9764         calculate D2E/DX2 analytically  !
 ! A2    A(2,1,7)              120.5935         calculate D2E/DX2 analytically  !
 ! A3    A(6,1,7)              117.4301         calculate D2E/DX2 analytically  !
 ! A4    A(1,2,3)              110.0392         calculate D2E/DX2 analytically  !
 ! A5    A(2,3,4)              134.3979         calculate D2E/DX2 analytically  !
 ! A6    A(2,3,10)             111.8243         calculate D2E/DX2 analytically  !
 ! A7    A(4,3,10)             113.7778         calculate D2E/DX2 analytically  !
 ! A8    A(3,4,5)              112.9308         calculate D2E/DX2 analytically  !
 ! A9    A(3,4,8)              124.1607         calculate D2E/DX2 analytically  !
 ! A10   A(5,4,8)              122.9084         calculate D2E/DX2 analytically  !
 ! A11   A(4,5,6)              119.3339         calculate D2E/DX2 analytically  !
 ! A12   A(4,5,9)              120.3699         calculate D2E/DX2 analytically  !
 ! A13   A(6,5,9)              120.2962         calculate D2E/DX2 analytically  !
 ! A14   A(1,6,5)              121.3217         calculate D2E/DX2 analytically  !
 ! A15   A(1,6,12)             118.162          calculate D2E/DX2 analytically  !
 ! A16   A(5,6,12)             120.5163         calculate D2E/DX2 analytically  !
 ! A17   A(3,10,11)            163.987          calculate D2E/DX2 analytically  !
 ! A18   A(6,12,13)            125.1536         calculate D2E/DX2 analytically  !
 ! A19   A(6,12,14)            113.0816         calculate D2E/DX2 analytically  !
 ! A20   A(13,12,14)           121.764          calculate D2E/DX2 analytically  !
 ! A21   A(12,14,15)           106.2118         calculate D2E/DX2 analytically  !
 ! D1    D(6,1,2,3)             -0.0009         calculate D2E/DX2 analytically  !
 ! D2    D(7,1,2,3)           -179.9921         calculate D2E/DX2 analytically  !
 ! D3    D(2,1,6,5)              0.0051         calculate D2E/DX2 analytically  !
 ! D4    D(2,1,6,12)          -179.99           calculate D2E/DX2 analytically  !
 ! D5    D(7,1,6,5)            179.9966         calculate D2E/DX2 analytically  !
 ! D6    D(7,1,6,12)             0.0015         calculate D2E/DX2 analytically  !
 ! D7    D(1,2,3,4)             -0.0013         calculate D2E/DX2 analytically  !
 ! D8    D(1,2,3,10)          -179.9978         calculate D2E/DX2 analytically  !
 ! D9    D(2,3,4,5)             -0.0007         calculate D2E/DX2 analytically  !
 ! D10   D(2,3,4,8)           -179.9984         calculate D2E/DX2 analytically  !
 ! D11   D(10,3,4,5)           179.9956         calculate D2E/DX2 analytically  !
 ! D12   D(10,3,4,8)            -0.002          calculate D2E/DX2 analytically  !
 ! D13   D(2,3,10,11)           -0.0148         calculate D2E/DX2 analytically  !
 ! D14   D(4,3,10,11)          179.988          calculate D2E/DX2 analytically  !
 ! D15   D(3,4,5,6)              0.0049         calculate D2E/DX2 analytically  !
 ! D16   D(3,4,5,9)            179.9985         calculate D2E/DX2 analytically  !
 ! D17   D(8,4,5,6)           -179.9974         calculate D2E/DX2 analytically  !
 ! D18   D(8,4,5,9)             -0.0038         calculate D2E/DX2 analytically  !
 ! D19   D(4,5,6,1)             -0.0072         calculate D2E/DX2 analytically  !
 ! D20   D(4,5,6,12)           179.9878         calculate D2E/DX2 analytically  !
 ! D21   D(9,5,6,1)            179.9992         calculate D2E/DX2 analytically  !
 ! D22   D(9,5,6,12)            -0.0058         calculate D2E/DX2 analytically  !
 ! D23   D(1,6,12,13)           -0.1659         calculate D2E/DX2 analytically  !
 ! D24   D(1,6,12,14)         -179.854          calculate D2E/DX2 analytically  !
 ! D25   D(5,6,12,13)          179.8389         calculate D2E/DX2 analytically  !
 ! D26   D(5,6,12,14)            0.1509         calculate D2E/DX2 analytically  !
 ! D27   D(6,12,14,15)         179.8465         calculate D2E/DX2 analytically  !
 ! D28   D(13,12,14,15)          0.1465         calculate D2E/DX2 analytically  !
 --------------------------------------------------------------------------------
 Trust Radius=3.00D-01 FncErr=1.00D-07 GrdErr=1.00D-06
 Number of steps in this run=     74 maximum allowed number of steps=    100.
 Search for a saddle point of order  1.
 GradGradGradGradGradGradGradGradGradGradGradGradGradGradGradGradGradGrad

                          Input orientation:                          
 ---------------------------------------------------------------------
 Center     Atomic      Atomic             Coordinates (Angstroms)
 Number     Number       Type             X           Y           Z
 ---------------------------------------------------------------------
      1          6           0       -1.418530   -1.468340   -1.058830
      2          6           0       -0.014680   -1.238970   -1.104110
      3          6           0        0.246800    0.060340   -0.884470
      4          6           0       -0.540650    1.187230   -0.631210
      5          6           0       -1.898780    0.901870   -0.598970
      6          6           0       -2.334280   -0.431450   -0.813920
      7          1           0       -1.823070   -2.469850   -1.215430
      8          1           0       -0.142190    2.189640   -0.473960
      9          1           0       -2.621820    1.691250   -0.410930
     10          7           0        1.808570    0.364890   -0.925940
     11          7           0        2.913490    0.273310   -1.010930
     12          6           0       -3.790460   -0.768430   -0.784700
     13          8           0       -4.254650   -1.874860   -0.959530
     14          8           0       -4.584330    0.312650   -0.542590
     15          1           0       -5.497810   -0.015380   -0.547660
 ---------------------------------------------------------------------
                    Distance matrix (angstroms):
                    1          2          3          4          5
     1  C    0.000000
     2  C    1.423185   0.000000
     3  C    2.267286   1.343436   0.000000
     4  C    2.829414   2.527197   1.397891   0.000000
     5  C    2.461708   2.896238   2.322326   1.388160   0.000000
     6  C    1.404891   2.473225   2.628461   2.422936   1.419016
     7  H    1.091420   2.190373   3.285690   3.919202   3.428447
     8  H    3.918154   3.488368   2.203123   1.090103   2.181648
     9  H    3.442483   3.982947   3.333630   2.152633   1.086861
    10  N    3.713834   2.434821   1.591727   2.506381   3.760279
    11  N    4.669265   3.296946   2.678168   3.593121   4.870600
    12  C    2.488187   3.818369   4.122655   3.795976   2.530386
    13  O    2.866827   4.289826   4.900376   4.824726   3.659284
    14  O    3.668885   4.858449   4.849779   4.138127   2.750007
    15  H    4.360380   5.645487   5.754973   5.101636   3.714431
                    6          7          8          9         10
     6  C    0.000000
     7  H    2.139537   0.000000
     8  H    3.433794   5.008591   0.000000
     9  H    2.179664   4.312769   2.530006   0.000000
    10  N    4.220179   4.616098   2.709144   4.653259   0.000000
    11  N    5.298546   5.477385   3.646620   5.745451   1.111962
    12  C    1.494948   2.636471   4.707081   2.748718   5.714324
    13  O    2.406752   2.516362   5.802436   3.960333   6.463764
    14  O    2.385378   3.977383   4.822905   2.401940   6.404597
    15  H    3.201864   4.469234   5.792254   3.347028   7.326042
                   11         12         13         14         15
    11  N    0.000000
    12  C    6.788177   0.000000
    13  O    7.483282   1.212528   0.000000
    14  O    7.512536   1.362931   2.251161   0.000000
    15  H    8.428993   1.881041   2.274368   0.970606   0.000000
 Stoichiometry    C7H4N2O2
 Framework group  C1[X(C7H4N2O2)]
 Deg. of freedom    39
 Full point group                 C1      NOp   1
 Largest Abelian subgroup         C1      NOp   1
 Largest concise Abelian subgroup C1      NOp   1
                         Standard orientation:                         
 ---------------------------------------------------------------------
 Center     Atomic      Atomic             Coordinates (Angstroms)
 Number     Number       Type             X           Y           Z
 ---------------------------------------------------------------------
      1          6           0       -0.211321   -1.244583    0.000571
      2          6           0        1.211862   -1.242229    0.000108
      3          6           0        1.670118    0.020633    0.000087
      4          6           0        1.064841    1.280688    0.000389
      5          6           0       -0.321747    1.214647    0.000787
      6          6           0       -0.957280   -0.054094    0.000952
      7          1           0       -0.765238   -2.184995    0.000785
      8          1           0        1.612882    2.223012    0.000285
      9          1           0       -0.915231    2.125165    0.001075
     10          7           0        3.260989    0.072848   -0.000483
     11          7           0        4.339293   -0.198664   -0.000825
     12          6           0       -2.448750   -0.156013    0.001655
     13          8           0       -3.077678   -1.192675   -0.000944
     14          8           0       -3.067314    1.058463   -0.001219
     15          1           0       -4.020792    0.876934   -0.002974
 ---------------------------------------------------------------------
 Rotational constants (GHZ):      3.8525475      0.5715404      0.4977042
 Standard basis: Aug-CC-pVDZ (5D, 7F)
 There are   289 symmetry adapted basis functions of A   symmetry.
 Integral buffers will be    131072 words long.
 Raffenetti 2 integral format.
 Two-electron integral symmetry is turned on.
   289 basis functions,   517 primitive gaussians,   311 cartesian basis functions
    38 alpha electrons       38 beta electrons
       nuclear repulsion energy       519.7122409074 Hartrees.
 NAtoms=   15 NActive=   15 NUniq=   15 SFac= 1.00D+00 NAtFMM=   50 NAOKFM=F Big=F
 One-electron integrals computed using PRISM.
 NBasis=   289 RedAO= T  NBF=   289
 NBsUse=   289 1.00D-06 NBFU=   289
 Harris functional with IExCor=  402 diagonalized for initial guess.
 ExpMin= 2.97D-02 ExpMax= 1.17D+04 ExpMxC= 4.01D+02 IAcc=3 IRadAn=         0 AccDes= 0.00D+00
 HarFok:  IExCor=  402 AccDes= 0.00D+00 IRadAn=         0 IDoV= 1
 ScaDFX=  1.000000  1.000000  1.000000  1.000000
 FoFCou: FMM=F IPFlag=           0 FMFlag=      100000 FMFlg1=           0
         NFxFlg=           0 DoJE=T BraDBF=F KetDBF=T FulRan=T
         Omega=  0.000000  0.000000  1.000000  0.000000  0.000000 ICntrl=     500 IOpCl=  0
         NMat0=    1 NMatS0=    1 NMatT0=    0 NMatD0=    1 NMtDS0=    0 NMtDT0=    0
         I1Cent=           4 NGrid=           0.
 Petite list used in FoFCou.
 Initial guess orbital symmetries:
       Occupied  (A) (A) (A) (A) (A) (A) (A) (A) (A) (A) (A) (A)
                 (A) (A) (A) (A) (A) (A) (A) (A) (A) (A) (A) (A)
                 (A) (A) (A) (A) (A) (A) (A) (A) (A) (A) (A) (A)
                 (A) (A)
       Virtual   (A) (A) (A) (A) (A) (A) (A) (A) (A) (A) (A) (A)
                 (A) (A) (A) (A) (A) (A) (A) (A) (A) (A) (A) (A)
                 (A) (A) (A) (A) (A) (A) (A) (A) (A) (A) (A) (A)
                 (A) (A) (A) (A) (A) (A) (A) (A) (A) (A) (A) (A)
                 (A) (A) (A) (A) (A) (A) (A) (A) (A) (A) (A) (A)
                 (A) (A) (A) (A) (A) (A) (A) (A) (A) (A) (A) (A)
                 (A) (A) (A) (A) (A) (A) (A) (A) (A) (A) (A) (A)
                 (A) (A) (A) (A) (A) (A) (A) (A) (A) (A) (A) (A)
                 (A) (A) (A) (A) (A) (A) (A) (A) (A) (A) (A) (A)
                 (A) (A) (A) (A) (A) (A) (A) (A) (A) (A) (A) (A)
                 (A) (A) (A) (A) (A) (A) (A) (A) (A) (A) (A) (A)
                 (A) (A) (A) (A) (A) (A) (A) (A) (A) (A) (A) (A)
                 (A) (A) (A) (A) (A) (A) (A) (A) (A) (A) (A) (A)
                 (A) (A) (A) (A) (A) (A) (A) (A) (A) (A) (A) (A)
                 (A) (A) (A) (A) (A) (A) (A) (A) (A) (A) (A) (A)
                 (A) (A) (A) (A) (A) (A) (A) (A) (A) (A) (A) (A)
                 (A) (A) (A) (A) (A) (A) (A) (A) (A) (A) (A) (A)
                 (A) (A) (A) (A) (A) (A) (A) (A) (A) (A) (A) (A)
                 (A) (A) (A) (A) (A) (A) (A) (A) (A) (A) (A) (A)
                 (A) (A) (A) (A) (A) (A) (A) (A) (A) (A) (A) (A)
                 (A) (A) (A) (A) (A) (A) (A) (A) (A) (A) (A)
 The electronic state of the initial guess is 1-A.
 Requested convergence on RMS density matrix=1.00D-08 within 128 cycles.
 Requested convergence on MAX density matrix=1.00D-06.
 Requested convergence on             energy=1.00D-06.
 No special actions if energy rises.
 EnCoef did     2 forward-backward iterations
 EnCoef did     2 forward-backward iterations
 SCF Done:  E(RB3LYP) =  -529.043794139     A.U. after   19 cycles
             Convg  =    0.2670D-08             -V/T =  2.0061
 Range of M.O.s used for correlation:     1   289
 NBasis=   289 NAE=    38 NBE=    38 NFC=     0 NFV=     0
 NROrb=    289 NOA=    38 NOB=    38 NVA=   251 NVB=   251

 **** Warning!!: The largest alpha MO coefficient is  0.85013889D+02

 Symmetrizing basis deriv contribution to polar:
 IMax=3 JMax=2 DiffMx= 0.00D+00
 G2DrvN: will do    16 centers at a time, making    1 passes doing MaxLOS=2.
 Calling FoFCou, ICntrl=  3107 FMM=F I1Cent=   0 AccDes= 0.00D+00.
 FoFDir/FoFCou used for L=0 through L=2.
 End of G2Drv Frequency-dependent properties file   721 does not exist.
 End of G2Drv Frequency-dependent properties file   722 does not exist.
          IDoAtm=111111111111111
          Differentiating once with respect to nuclear coordinates.
          There are    48 degrees of freedom in the 1st order CPHF.  IDoFFX=5.
     42 vectors produced by pass  0 Test12= 1.99D-10 2.08D-07 XBig12= 9.32D-01 3.28D-01.
 AX will form    42 AO Fock derivatives at one time.
     42 vectors produced by pass  1 Test12= 1.99D-10 2.08D-07 XBig12= 4.06D-01 3.05D-01.
     42 vectors produced by pass  2 Test12= 1.99D-10 2.08D-07 XBig12= 5.79D-03 1.13D-02.
     42 vectors produced by pass  3 Test12= 1.99D-10 2.08D-07 XBig12= 1.05D-04 1.40D-03.
     42 vectors produced by pass  4 Test12= 1.99D-10 2.08D-07 XBig12= 3.07D-07 8.69D-05.
     18 vectors produced by pass  5 Test12= 1.99D-10 2.08D-07 XBig12= 6.93D-10 3.11D-06.
      1 vectors produced by pass  6 Test12= 1.99D-10 2.08D-07 XBig12= 2.98D-12 2.13D-07.
 Inverted reduced A of dimension   229 with in-core refinement.
 End of Minotr Frequency-dependent properties file   721 does not exist.
 End of Minotr Frequency-dependent properties file   722 does not exist.

 **********************************************************************

            Population analysis using the SCF density.

 **********************************************************************

 Orbital symmetries:
       Occupied  (A) (A) (A) (A) (A) (A) (A) (A) (A) (A) (A) (A)
                 (A) (A) (A) (A) (A) (A) (A) (A) (A) (A) (A) (A)
                 (A) (A) (A) (A) (A) (A) (A) (A) (A) (A) (A) (A)
                 (A) (A)
       Virtual   (A) (A) (A) (A) (A) (A) (A) (A) (A) (A) (A) (A)
                 (A) (A) (A) (A) (A) (A) (A) (A) (A) (A) (A) (A)
                 (A) (A) (A) (A) (A) (A) (A) (A) (A) (A) (A) (A)
                 (A) (A) (A) (A) (A) (A) (A) (A) (A) (A) (A) (A)
                 (A) (A) (A) (A) (A) (A) (A) (A) (A) (A) (A) (A)
                 (A) (A) (A) (A) (A) (A) (A) (A) (A) (A) (A) (A)
                 (A) (A) (A) (A) (A) (A) (A) (A) (A) (A) (A) (A)
                 (A) (A) (A) (A) (A) (A) (A) (A) (A) (A) (A) (A)
                 (A) (A) (A) (A) (A) (A) (A) (A) (A) (A) (A) (A)
                 (A) (A) (A) (A) (A) (A) (A) (A) (A) (A) (A) (A)
                 (A) (A) (A) (A) (A) (A) (A) (A) (A) (A) (A) (A)
                 (A) (A) (A) (A) (A) (A) (A) (A) (A) (A) (A) (A)
                 (A) (A) (A) (A) (A) (A) (A) (A) (A) (A) (A) (A)
                 (A) (A) (A) (A) (A) (A) (A) (A) (A) (A) (A) (A)
                 (A) (A) (A) (A) (A) (A) (A) (A) (A) (A) (A) (A)
                 (A) (A) (A) (A) (A) (A) (A) (A) (A) (A) (A) (A)
                 (A) (A) (A) (A) (A) (A) (A) (A) (A) (A) (A) (A)
                 (A) (A) (A) (A) (A) (A) (A) (A) (A) (A) (A) (A)
                 (A) (A) (A) (A) (A) (A) (A) (A) (A) (A) (A) (A)
                 (A) (A) (A) (A) (A) (A) (A) (A) (A) (A) (A) (A)
                 (A) (A) (A) (A) (A) (A) (A) (A) (A) (A) (A)
 The electronic state is 1-A.
 Alpha  occ. eigenvalues --  -19.20596 -19.14835 -14.53133 -14.50565 -10.33187
 Alpha  occ. eigenvalues --  -10.27838 -10.23278 -10.22497 -10.21984 -10.21110
 Alpha  occ. eigenvalues --  -10.17149  -1.19414  -1.12097  -1.03111  -0.89776
 Alpha  occ. eigenvalues --   -0.81738  -0.77106  -0.72052  -0.63981  -0.63396
 Alpha  occ. eigenvalues --   -0.57681  -0.54530  -0.53832  -0.52686  -0.51756
 Alpha  occ. eigenvalues --   -0.49896  -0.46827  -0.46324  -0.46030  -0.42300
 Alpha  occ. eigenvalues --   -0.41795  -0.39375  -0.37756  -0.33799  -0.29479
 Alpha  occ. eigenvalues --   -0.29006  -0.27087  -0.21637
 Alpha virt. eigenvalues --   -0.11276  -0.10878  -0.04898  -0.03268  -0.02084
 Alpha virt. eigenvalues --   -0.00858   0.01271   0.02141   0.03029   0.03247
 Alpha virt. eigenvalues --    0.03660   0.04643   0.05521   0.05840   0.05874
 Alpha virt. eigenvalues --    0.07179   0.07921   0.08001   0.08352   0.08785
 Alpha virt. eigenvalues --    0.09136   0.10330   0.10519   0.11535   0.11953
 Alpha virt. eigenvalues --    0.12016   0.12273   0.12893   0.13591   0.13672
 Alpha virt. eigenvalues --    0.15759   0.16191   0.16637   0.16928   0.17897
 Alpha virt. eigenvalues --    0.18125   0.18852   0.19168   0.19533   0.20560
 Alpha virt. eigenvalues --    0.20595   0.21392   0.21956   0.22270   0.22882
 Alpha virt. eigenvalues --    0.23618   0.23979   0.24039   0.24474   0.25649
 Alpha virt. eigenvalues --    0.26563   0.27196   0.27448   0.28210   0.28569
 Alpha virt. eigenvalues --    0.29381   0.29579   0.30788   0.31631   0.31739
 Alpha virt. eigenvalues --    0.32619   0.32962   0.33422   0.34296   0.36270
 Alpha virt. eigenvalues --    0.37587   0.37735   0.38131   0.38510   0.39062
 Alpha virt. eigenvalues --    0.40224   0.41928   0.43174   0.45195   0.45517
 Alpha virt. eigenvalues --    0.46633   0.47676   0.48539   0.49739   0.50593
 Alpha virt. eigenvalues --    0.50765   0.51701   0.52638   0.53670   0.54154
 Alpha virt. eigenvalues --    0.54356   0.55186   0.55974   0.56370   0.57030
 Alpha virt. eigenvalues --    0.57198   0.57929   0.58544   0.60926   0.61192
 Alpha virt. eigenvalues --    0.61889   0.62601   0.63409   0.64029   0.64989
 Alpha virt. eigenvalues --    0.65429   0.68739   0.69295   0.70065   0.70791
 Alpha virt. eigenvalues --    0.71129   0.71454   0.71586   0.73057   0.73258
 Alpha virt. eigenvalues --    0.73714   0.73881   0.75040   0.75456   0.76854
 Alpha virt. eigenvalues --    0.77211   0.79305   0.79728   0.81079   0.82384
 Alpha virt. eigenvalues --    0.82726   0.84473   0.85206   0.86461   0.86964
 Alpha virt. eigenvalues --    0.87934   0.88698   0.89002   0.90156   0.93914
 Alpha virt. eigenvalues --    0.94072   0.96559   0.97815   0.99613   1.01104
 Alpha virt. eigenvalues --    1.01577   1.05178   1.06906   1.06992   1.09092
 Alpha virt. eigenvalues --    1.10215   1.11065   1.14081   1.15064   1.15592
 Alpha virt. eigenvalues --    1.18367   1.18707   1.20854   1.23771   1.24794
 Alpha virt. eigenvalues --    1.26616   1.27093   1.27101   1.29608   1.30699
 Alpha virt. eigenvalues --    1.32192   1.36082   1.37249   1.38860   1.39790
 Alpha virt. eigenvalues --    1.40527   1.43731   1.44445   1.45901   1.47425
 Alpha virt. eigenvalues --    1.48607   1.49687   1.51624   1.51879   1.53387
 Alpha virt. eigenvalues --    1.54661   1.55157   1.56097   1.58163   1.60409
 Alpha virt. eigenvalues --    1.60471   1.63276   1.65234   1.67178   1.68252
 Alpha virt. eigenvalues --    1.68476   1.70978   1.72162   1.73622   1.74951
 Alpha virt. eigenvalues --    1.78387   1.80644   1.82269   1.85713   1.87104
 Alpha virt. eigenvalues --    1.89084   1.89209   1.90071   1.92570   1.93275
 Alpha virt. eigenvalues --    1.96115   1.96253   1.99604   2.00667   2.01407
 Alpha virt. eigenvalues --    2.03396   2.04505   2.06160   2.09442   2.10042
 Alpha virt. eigenvalues --    2.11362   2.12571   2.16617   2.18793   2.20709
 Alpha virt. eigenvalues --    2.21701   2.23374   2.24803   2.26117   2.29806
 Alpha virt. eigenvalues --    2.30481   2.32731   2.34624   2.39298   2.41628
 Alpha virt. eigenvalues --    2.47607   2.54381   2.58542   2.62256   2.68626
 Alpha virt. eigenvalues --    2.69963   2.75467   2.77450   2.82791   2.85918
 Alpha virt. eigenvalues --    2.88787   2.89503   2.99275   3.01469   3.04382
 Alpha virt. eigenvalues --    3.10826   3.13860   3.21115   3.29616   3.33416
 Alpha virt. eigenvalues --    3.35511   3.37188   3.40256   3.41579   3.43074
 Alpha virt. eigenvalues --    3.49900   3.52902   3.67451   3.74650   3.94027
 Alpha virt. eigenvalues --    3.96330
          Condensed to atoms (all electrons):
              1          2          3          4          5          6
     1  C   14.946317   0.326357  -0.382313  -1.638932  -2.827330  -2.379917
     2  C    0.326357  11.647300   0.144492  -1.289388  -1.602901  -1.252164
     3  C   -0.382313   0.144492  11.369132  -4.079738   0.488537  -2.719777
     4  C   -1.638932  -1.289388  -4.079738  19.112323  -5.217076  -0.003071
     5  C   -2.827330  -1.602901   0.488537  -5.217076  22.108528  -4.692185
     6  C   -2.379917  -1.252164  -2.719777  -0.003071  -4.692185  17.592235
     7  H   -1.013891  -0.107466  -0.116228  -0.045194   0.235529  -0.030309
     8  H    0.134917   0.056912   1.380858  -2.314284   0.861346  -0.723814
     9  H    0.222820   0.051313  -0.688077   0.899416  -2.662526   1.265306
    10  N    0.003867  -0.255127   0.168749   0.234407  -0.183646  -0.003641
    11  N   -0.128510   0.119355  -0.267993  -0.190536  -0.016846   0.086404
    12  C   -1.541684   0.035774  -0.138010  -0.192725  -1.970355  -3.460674
    13  O   -0.012226  -0.058772  -0.011466   0.000898  -0.110493   0.318558
    14  O   -0.149919  -0.037496  -0.000910  -0.102686   0.305836   0.193109
    15  H   -0.049921  -0.004790   0.007078   0.004378   0.050020   0.078373
              7          8          9         10         11         12
     1  C   -1.013891   0.134917   0.222820   0.003867  -0.128510  -1.541684
     2  C   -0.107466   0.056912   0.051313  -0.255127   0.119355   0.035774
     3  C   -0.116228   1.380858  -0.688077   0.168749  -0.267993  -0.138010
     4  C   -0.045194  -2.314284   0.899416   0.234407  -0.190536  -0.192725
     5  C    0.235529   0.861346  -2.662526  -0.183646  -0.016846  -1.970355
     6  C   -0.030309  -0.723814   1.265306  -0.003641   0.086404  -3.460674
     7  H    2.945224   0.003215  -0.017799  -0.007336   0.005951   0.167152
     8  H    0.003215   2.742159  -0.246498  -0.104405  -0.010840   0.020323
     9  H   -0.017799  -0.246498   3.306680  -0.005617  -0.000923  -0.093228
    10  N   -0.007336  -0.104405  -0.005617   8.073823  -1.424524   0.014602
    11  N    0.005951  -0.010840  -0.000923  -1.424524   9.560535   0.010507
    12  C    0.167152   0.020323  -0.093228   0.014602   0.010507  13.212804
    13  O   -0.118851  -0.000421   0.019796  -0.001133  -0.000216   0.022304
    14  O   -0.009759  -0.002514  -0.105164   0.000286   0.000121  -0.354179
    15  H    0.004144   0.000830  -0.003394  -0.000014  -0.000002  -0.134233
             13         14         15
     1  C   -0.012226  -0.149919  -0.049921
     2  C   -0.058772  -0.037496  -0.004790
     3  C   -0.011466  -0.000910   0.007078
     4  C    0.000898  -0.102686   0.004378
     5  C   -0.110493   0.305836   0.050020
     6  C    0.318558   0.193109   0.078373
     7  H   -0.118851  -0.009759   0.004144
     8  H   -0.000421  -0.002514   0.000830
     9  H    0.019796  -0.105164  -0.003394
    10  N   -0.001133   0.000286  -0.000014
    11  N   -0.000216   0.000121  -0.000002
    12  C    0.022304  -0.354179  -0.134233
    13  O    8.502701   0.016487  -0.023835
    14  O    0.016487   8.583678   0.249004
    15  H   -0.023835   0.249004   0.557687
 Mulliken atomic charges:
              1
     1  C    0.490364
     2  C   -1.773398
     3  C    0.845665
     4  C    0.822208
     5  C    1.233561
     6  C    1.731569
     7  H   -0.894381
     8  H   -0.797784
     9  H   -0.942105
    10  N    0.489709
    11  N   -0.742483
    12  C    0.401622
    13  O   -0.543329
    14  O   -0.585894
    15  H    0.264675
 Sum of Mulliken atomic charges =   0.00000
 Mulliken charges with hydrogens summed into heavy atoms:
              1
     1  C   -0.404017
     2  C   -1.773398
     3  C    0.845665
     4  C    0.024424
     5  C    0.291457
     6  C    1.731569
    10  N    0.489709
    11  N   -0.742483
    12  C    0.401622
    13  O   -0.543329
    14  O   -0.321219
 Sum of Mulliken charges with hydrogens summed into heavy atoms =   0.00000
 APT atomic charges:
              1
     1  C   -0.365415
     2  C   -0.114784
     3  C    0.256606
     4  C    0.292001
     5  C    0.358418
     6  C    1.673669
     7  H   -0.260722
     8  H   -0.242399
     9  H   -0.262702
    10  N   -1.767628
    11  N    1.299569
    12  C   -0.872189
    13  O    0.217935
    14  O   -1.200803
    15  H    0.988445
 Sum of APT charges=   0.00000
 APT Atomic charges with hydrogens summed into heavy atoms:
              1
     1  C   -0.626137
     2  C   -0.114784
     3  C    0.256606
     4  C    0.049602
     5  C    0.095716
     6  C    1.673669
     7  H    0.000000
     8  H    0.000000
     9  H    0.000000
    10  N   -1.767628
    11  N    1.299569
    12  C   -0.872189
    13  O    0.217935
    14  O   -0.212358
    15  H    0.000000
 Sum of APT charges=   0.00000
 Electronic spatial extent (au):  <R**2>=           2011.1729
 Charge=              0.0000 electrons
 Dipole moment (field-independent basis, Debye):
    X=              2.1759    Y=              4.5066    Z=              0.0014  Tot=              5.0044
 Quadrupole moment (field-independent basis, Debye-Ang):
   XX=            -52.4901   YY=            -66.3360   ZZ=            -63.3110
   XY=             -0.2749   XZ=             -0.0008   YZ=             -0.0046
 Traceless Quadrupole moment (field-independent basis, Debye-Ang):
   XX=              8.2222   YY=             -5.6236   ZZ=             -2.5986
   XY=             -0.2749   XZ=             -0.0008   YZ=             -0.0046
 Octapole moment (field-independent basis, Debye-Ang**2):
  XXX=            -11.1998  YYY=             21.4486  ZZZ=             -0.0182  XYY=             -0.7783
  XXY=             40.3855  XXZ=             -0.0397  XZZ=             -4.6129  YZZ=              0.7501
  YYZ=             -0.0037  XYZ=              0.0203
 Hexadecapole moment (field-independent basis, Debye-Ang**3):
 XXXX=          -1867.8007 YYYY=           -425.1000 ZZZZ=            -68.2070 XXXY=            -87.3624
 XXXZ=              0.2407 YYYX=             24.2092 YYYZ=             -0.0053 ZZZX=              0.0173
 ZZZY=             -0.0033 XXYY=           -454.6143 XXZZ=           -354.1011 YYZZ=            -88.1597
 XXYZ=             -0.0949 YYXZ=              0.0177 ZZXY=              2.5485
 N-N= 5.197122409074D+02 E-N=-2.273469976708D+03  KE= 5.258296034408D+02
  Exact polarizability:   0.000   0.000   0.000   0.000   0.000   0.000
 Approx polarizability: 290.219  23.893 208.219  -0.020   0.016  93.556
 Calling FoFJK, ICntrl=    100147 FMM=F ISym2X=0 I1Cent= 0 IOpClX= 0 NMat=1 NMatS=1 NMatT=0.
 ***** Axes restored to original set *****
 -------------------------------------------------------------------
 Center     Atomic                   Forces (Hartrees/Bohr)
 Number     Number              X              Y              Z
 -------------------------------------------------------------------
      1        6           0.000195378   -0.000354637   -0.000049068
      2        6          -0.000187143    0.001080225    0.000197339
      3        6           0.000654198   -0.001225211   -0.000280133
      4        6           0.000460961    0.000026428   -0.000046068
      5        6          -0.000079992   -0.000180015    0.000002765
      6        6          -0.000024445    0.000125271    0.000254244
      7        1          -0.000042691    0.000014482   -0.000001098
      8        1          -0.000008838    0.000003763   -0.000000540
      9        1          -0.000023284    0.000034797    0.000008678
     10        7          -0.001036855    0.001170354    0.000296109
     11        7           0.000056357   -0.000734126   -0.000143483
     12        6          -0.000025348    0.000135524   -0.000736012
     13        8           0.000019184   -0.000064060    0.000278127
     14        8           0.000056040   -0.000038559    0.000209464
     15        1          -0.000013523    0.000005765    0.000009679
 -------------------------------------------------------------------
 Cartesian Forces:  Max     0.001225211 RMS     0.000409345

 GradGradGradGradGradGradGradGradGradGradGradGradGradGradGradGradGradGrad
 Berny optimization.
 Internal  Forces:  Max     0.001537488 RMS     0.000265509
 Search for a saddle point.
 Step number   1 out of a maximum of   74
 All quantities printed in internal units (Hartrees-Bohrs-Radians)
 Swaping is turned off.
 Second derivative matrix not updated -- analytic derivatives used.
 ITU=  0
     Eigenvalues ---   -0.06791   0.00107   0.00299   0.01096   0.01728
     Eigenvalues ---    0.01807   0.02062   0.02204   0.02307   0.02921
     Eigenvalues ---    0.03135   0.03841   0.06767   0.06842   0.10387
     Eigenvalues ---    0.11570   0.12184   0.15087   0.15231   0.16745
     Eigenvalues ---    0.19682   0.20012   0.21230   0.24373   0.26059
     Eigenvalues ---    0.29148   0.34745   0.35753   0.35907   0.37015
     Eigenvalues ---    0.38419   0.39781   0.42600   0.45197   0.49609
     Eigenvalues ---    0.51089   0.52940   0.84489   1.42292
 Eigenvectors required to have negative eigenvalues:
                          R6        A17       R4        A7        R5
   1                    0.87500  -0.36681  -0.21416  -0.12250  -0.08373
                          A5        A1        A8        A4        A2
   1                    0.07773  -0.07625  -0.06881   0.06040   0.04770
 RFO step:  Lambda0=1.873842530D-07 Lambda=-4.91724428D-05.
 Linear search not attempted -- option 19 set.
 Iteration  1 RMS(Cart)=  0.00561157 RMS(Int)=  0.00005619
 Iteration  2 RMS(Cart)=  0.00005644 RMS(Int)=  0.00000105
 Iteration  3 RMS(Cart)=  0.00000000 RMS(Int)=  0.00000105
 Variable       Old X    -DE/DX   Delta X   Delta X   Delta X     New X
                                 (Linear)    (Quad)   (Total)
    R1        2.68943  -0.00017   0.00000  -0.00150  -0.00150   2.68793
    R2        2.65486   0.00004   0.00000   0.00038   0.00038   2.65524
    R3        2.06249   0.00000   0.00000  -0.00009  -0.00009   2.06240
    R4        2.53873  -0.00084   0.00000  -0.00184  -0.00184   2.53689
    R5        2.64163  -0.00023   0.00000   0.00017   0.00017   2.64180
    R6        3.00793  -0.00088   0.00000  -0.01131  -0.01131   2.99662
    R7        2.62324   0.00016   0.00000   0.00019   0.00019   2.62343
    R8        2.06000   0.00000   0.00000   0.00012   0.00012   2.06012
    R9        2.68155  -0.00003   0.00000  -0.00007  -0.00007   2.68149
   R10        2.05387   0.00004   0.00000   0.00013   0.00013   2.05400
   R11        2.82504  -0.00005   0.00000   0.00000   0.00000   2.82504
   R12        2.10130   0.00013   0.00000   0.00099   0.00099   2.10229
   R13        2.29135   0.00001   0.00000   0.00002   0.00002   2.29137
   R14        2.57557  -0.00002   0.00000  -0.00014  -0.00014   2.57543
   R15        1.83418   0.00001   0.00000   0.00003   0.00003   1.83421
    A1        2.12889  -0.00025   0.00000  -0.00242  -0.00242   2.12647
    A2        2.10475   0.00016   0.00000   0.00184   0.00184   2.10659
    A3        2.04954   0.00008   0.00000   0.00058   0.00058   2.05012
    A4        1.92055   0.00033   0.00000   0.00453   0.00453   1.92508
    A5        2.34569   0.00010   0.00000  -0.00343  -0.00343   2.34225
    A6        1.95170   0.00015   0.00000   0.00172   0.00172   1.95343
    A7        1.98580  -0.00025   0.00000   0.00171   0.00171   1.98751
    A8        1.97101  -0.00013   0.00000   0.00086   0.00086   1.97188
    A9        2.16701   0.00008   0.00000  -0.00063  -0.00063   2.16638
   A10        2.14516   0.00005   0.00000  -0.00023  -0.00023   2.14492
   A11        2.08277   0.00000   0.00000   0.00037   0.00036   2.08313
   A12        2.10085   0.00000   0.00000   0.00010   0.00011   2.10096
   A13        2.09957   0.00000   0.00000  -0.00047  -0.00047   2.09910
   A14        2.11746  -0.00006   0.00000   0.00009   0.00009   2.11755
   A15        2.06232   0.00000   0.00000  -0.00027  -0.00027   2.06205
   A16        2.10341   0.00006   0.00000   0.00018   0.00018   2.10358
   A17        2.86211  -0.00154   0.00000  -0.02107  -0.02107   2.84104
   A18        2.18434   0.00000   0.00000  -0.00013  -0.00013   2.18421
   A19        1.97365  -0.00003   0.00000  -0.00001  -0.00001   1.97363
   A20        2.12518   0.00003   0.00000   0.00017   0.00016   2.12534
   A21        1.85375   0.00001   0.00000   0.00015   0.00015   1.85390
    D1       -0.00002   0.00000   0.00000   0.00001   0.00001  -0.00001
    D2       -3.14145  -0.00001   0.00000  -0.00014  -0.00014   3.14159
    D3        0.00009  -0.00001   0.00000  -0.00008  -0.00008   0.00001
    D4       -3.14142  -0.00002   0.00000  -0.00016  -0.00016  -3.14158
    D5        3.14153   0.00000   0.00000   0.00007   0.00007  -3.14159
    D6        0.00003   0.00000   0.00000  -0.00002  -0.00002   0.00001
    D7       -0.00002   0.00000   0.00000   0.00003   0.00003   0.00000
    D8       -3.14155  -0.00001   0.00000  -0.00004  -0.00004   3.14159
    D9       -0.00001   0.00000   0.00000   0.00001   0.00001   0.00000
   D10       -3.14156   0.00000   0.00000  -0.00003  -0.00003  -3.14159
   D11        3.14152   0.00001   0.00000   0.00008   0.00008  -3.14158
   D12       -0.00003   0.00001   0.00000   0.00004   0.00004   0.00001
   D13       -0.00026   0.00000   0.00000   0.00034   0.00034   0.00008
   D14        3.14138   0.00000   0.00000   0.00029   0.00029  -3.14152
   D15        0.00009  -0.00001   0.00000  -0.00009  -0.00009   0.00000
   D16        3.14157   0.00000   0.00000   0.00003   0.00003   3.14159
   D17       -3.14155   0.00000   0.00000  -0.00005  -0.00005   3.14159
   D18       -0.00007   0.00001   0.00000   0.00006   0.00006   0.00000
   D19       -0.00013   0.00001   0.00000   0.00012   0.00012   0.00000
   D20        3.14138   0.00002   0.00000   0.00021   0.00021   3.14159
   D21        3.14158   0.00000   0.00000   0.00001   0.00001   3.14159
   D22       -0.00010   0.00001   0.00000   0.00010   0.00010   0.00000
   D23       -0.00290   0.00019   0.00000   0.00289   0.00289  -0.00001
   D24       -3.13904  -0.00018   0.00000  -0.00256  -0.00255   3.14159
   D25        3.13878   0.00018   0.00000   0.00280   0.00280   3.14158
   D26        0.00263  -0.00019   0.00000  -0.00264  -0.00264  -0.00001
   D27        3.13891   0.00018   0.00000   0.00268   0.00268  -3.14159
   D28        0.00256  -0.00017   0.00000  -0.00255  -0.00255   0.00000
         Item               Value     Threshold  Converged?
 Maximum Force            0.001537     0.000450     NO 
 RMS     Force            0.000266     0.000300     YES
 Maximum Displacement     0.035783     0.001800     NO 
 RMS     Displacement     0.005628     0.001200     NO 
 Predicted change in Energy=-2.450900D-05
 GradGradGradGradGradGradGradGradGradGradGradGradGradGradGradGradGradGrad

                          Input orientation:                          
 ---------------------------------------------------------------------
 Center     Atomic      Atomic             Coordinates (Angstroms)
 Number     Number       Type             X           Y           Z
 ---------------------------------------------------------------------
      1          6           0       -1.416589   -1.466874   -1.059183
      2          6           0       -0.014188   -1.233317   -1.102995
      3          6           0        0.248847    0.064729   -0.883681
      4          6           0       -0.541104    1.190104   -0.630978
      5          6           0       -1.899024    0.903157   -0.599579
      6          6           0       -2.333338   -0.430465   -0.814821
      7          1           0       -1.819743   -2.468830   -1.216176
      8          1           0       -0.144109    2.193117   -0.473421
      9          1           0       -2.623223    1.691683   -0.412024
     10          7           0        1.804675    0.368610   -0.924160
     11          7           0        2.907733    0.254374   -1.012694
     12          6           0       -3.789223   -0.768808   -0.786718
     13          8           0       -4.251927   -1.876244   -0.959190
     14          8           0       -4.584035    0.310897   -0.541988
     15          1           0       -5.497144   -0.018234   -0.545573
 ---------------------------------------------------------------------
                    Distance matrix (angstroms):
                    1          2          3          4          5
     1  C    0.000000
     2  C    1.422391   0.000000
     3  C    2.269424   1.342464   0.000000
     4  C    2.830082   2.524561   1.397981   0.000000
     5  C    2.461915   2.893192   2.323150   1.388262   0.000000
     6  C    1.405093   2.471047   2.630141   2.423251   1.418981
     7  H    1.091373   2.190737   3.287634   3.919843   3.428815
     8  H    3.918910   3.486215   2.202899   1.090168   2.181660
     9  H    3.442566   3.979966   3.334400   2.152845   1.086928
    10  N    3.709957   2.430312   1.585744   2.502696   3.756126
    11  N    4.654526   3.280092   2.668761   3.593852   4.867905
    12  C    2.488157   3.816633   4.124342   3.796296   2.530482
    13  O    2.866483   4.288644   4.902045   4.824979   3.659309
    14  O    3.668879   4.856215   4.851196   4.138383   2.750158
    15  H    4.360422   5.643576   5.756528   5.101931   3.714612
                    6          7          8          9         10
     6  C    0.000000
     7  H    2.140046   0.000000
     8  H    3.434016   5.009310   0.000000
     9  H    2.179402   4.313016   2.530061   0.000000
    10  N    4.215879   4.612239   2.707351   4.649633   0.000000
    11  N    5.289328   5.459512   3.655582   5.746141   1.112486
    12  C    1.494946   2.636922   4.707229   2.748448   5.710018
    13  O    2.406678   2.516490   5.802572   3.960072   6.459337
    14  O    2.385307   3.977778   4.822903   2.401717   6.400391
    15  H    3.201889   4.469721   5.792259   3.346800   7.321854
                   11         12         13         14         15
    11  N    0.000000
    12  C    6.778435   0.000000
    13  O    7.470149   1.212541   0.000000
    14  O    7.506753   1.362858   2.251208   0.000000
    15  H    8.422260   1.881092   2.274609   0.970622   0.000000
 Stoichiometry    C7H4N2O2
 Framework group  C1[X(C7H4N2O2)]
 Deg. of freedom    39
 Full point group                 C1      NOp   1
 Largest Abelian subgroup         C1      NOp   1
 Largest concise Abelian subgroup C1      NOp   1
                         Standard orientation:                         
 ---------------------------------------------------------------------
 Center     Atomic      Atomic             Coordinates (Angstroms)
 Number     Number       Type             X           Y           Z
 ---------------------------------------------------------------------
      1          6           0        0.208060   -1.243278    0.000004
      2          6           0       -1.214309   -1.235287   -0.000004
      3          6           0       -1.672950    0.026401    0.000000
      4          6           0       -1.064025    1.284797    0.000006
      5          6           0        0.322530    1.215974    0.000007
      6          6           0        0.955968   -0.053775    0.000004
      7          1           0        0.759953   -2.184825    0.000006
      8          1           0       -1.609990    2.228400    0.000010
      9          1           0        0.917970    2.125295    0.000010
     10          7           0       -3.257780    0.080252   -0.000013
     11          7           0       -4.330968   -0.212820    0.000004
     12          6           0        2.447249   -0.158402   -0.000001
     13          8           0        3.074158   -1.196304    0.000003
     14          8           0        3.067967    1.054895   -0.000009
     15          1           0        4.021163    0.871794   -0.000013
 ---------------------------------------------------------------------
 Rotational constants (GHZ):      3.8507262      0.5725507      0.4984395
 Standard basis: Aug-CC-pVDZ (5D, 7F)
 There are   289 symmetry adapted basis functions of A   symmetry.
 Integral buffers will be    131072 words long.
 Raffenetti 2 integral format.
 Two-electron integral symmetry is turned on.
   289 basis functions,   517 primitive gaussians,   311 cartesian basis functions
    38 alpha electrons       38 beta electrons
       nuclear repulsion energy       519.9333030109 Hartrees.
 NAtoms=   15 NActive=   15 NUniq=   15 SFac= 1.00D+00 NAtFMM=   50 NAOKFM=F Big=F
 One-electron integrals computed using PRISM.
 NBasis=   289 RedAO= T  NBF=   289
 NBsUse=   289 1.00D-06 NBFU=   289
 Initial guess read from the read-write file.
 B after Tr=     0.000000    0.000000    0.000000
         Rot=    1.000000    0.000000    0.000000    0.000000 Ang=   0.00 deg.
 Initial guess orbital symmetries:
       Occupied  (A) (A) (A) (A) (A) (A) (A) (A) (A) (A) (A) (A)
                 (A) (A) (A) (A) (A) (A) (A) (A) (A) (A) (A) (A)
                 (A) (A) (A) (A) (A) (A) (A) (A) (A) (A) (A) (A)
                 (A) (A)
       Virtual   (A) (A) (A) (A) (A) (A) (A) (A) (A) (A) (A) (A)
                 (A) (A) (A) (A) (A) (A) (A) (A) (A) (A) (A) (A)
                 (A) (A) (A) (A) (A) (A) (A) (A) (A) (A) (A) (A)
                 (A) (A) (A) (A) (A) (A) (A) (A) (A) (A) (A) (A)
                 (A) (A) (A) (A) (A) (A) (A) (A) (A) (A) (A) (A)
                 (A) (A) (A) (A) (A) (A) (A) (A) (A) (A) (A) (A)
                 (A) (A) (A) (A) (A) (A) (A) (A) (A) (A) (A) (A)
                 (A) (A) (A) (A) (A) (A) (A) (A) (A) (A) (A) (A)
                 (A) (A) (A) (A) (A) (A) (A) (A) (A) (A) (A) (A)
                 (A) (A) (A) (A) (A) (A) (A) (A) (A) (A) (A) (A)
                 (A) (A) (A) (A) (A) (A) (A) (A) (A) (A) (A) (A)
                 (A) (A) (A) (A) (A) (A) (A) (A) (A) (A) (A) (A)
                 (A) (A) (A) (A) (A) (A) (A) (A) (A) (A) (A) (A)
                 (A) (A) (A) (A) (A) (A) (A) (A) (A) (A) (A) (A)
                 (A) (A) (A) (A) (A) (A) (A) (A) (A) (A) (A) (A)
                 (A) (A) (A) (A) (A) (A) (A) (A) (A) (A) (A) (A)
                 (A) (A) (A) (A) (A) (A) (A) (A) (A) (A) (A) (A)
                 (A) (A) (A) (A) (A) (A) (A) (A) (A) (A) (A) (A)
                 (A) (A) (A) (A) (A) (A) (A) (A) (A) (A) (A) (A)
                 (A) (A) (A) (A) (A) (A) (A) (A) (A) (A) (A) (A)
                 (A) (A) (A) (A) (A) (A) (A) (A) (A) (A) (A)
 Harris functional with IExCor=  402 diagonalized for initial guess.
 ExpMin= 2.97D-02 ExpMax= 1.17D+04 ExpMxC= 4.01D+02 IAcc=3 IRadAn=         0 AccDes= 0.00D+00
 HarFok:  IExCor=  402 AccDes= 0.00D+00 IRadAn=         0 IDoV= 1
 ScaDFX=  1.000000  1.000000  1.000000  1.000000
 FoFCou: FMM=F IPFlag=           0 FMFlag=      100000 FMFlg1=           0
         NFxFlg=           0 DoJE=T BraDBF=F KetDBF=T FulRan=T
         Omega=  0.000000  0.000000  1.000000  0.000000  0.000000 ICntrl=     500 IOpCl=  0
         NMat0=    1 NMatS0=    1 NMatT0=    0 NMatD0=    1 NMtDS0=    0 NMtDT0=    0
         I1Cent=           4 NGrid=           0.
 Petite list used in FoFCou.
 Requested convergence on RMS density matrix=1.00D-08 within 128 cycles.
 Requested convergence on MAX density matrix=1.00D-06.
 Requested convergence on             energy=1.00D-06.
 No special actions if energy rises.
 SCF Done:  E(RB3LYP) =  -529.043817907     A.U. after   18 cycles
             Convg  =    0.9220D-08             -V/T =  2.0061
 Calling FoFJK, ICntrl=      2127 FMM=F ISym2X=0 I1Cent= 0 IOpClX= 0 NMat=1 NMatS=1 NMatT=0.
 ***** Axes restored to original set *****
 -------------------------------------------------------------------
 Center     Atomic                   Forces (Hartrees/Bohr)
 Number     Number              X              Y              Z
 -------------------------------------------------------------------
      1        6          -0.000001324   -0.000002234   -0.000000294
      2        6          -0.000022715    0.000003095    0.000001983
      3        6          -0.000046402   -0.000024550   -0.000001324
      4        6           0.000007782   -0.000001938   -0.000000690
      5        6          -0.000000187   -0.000001142   -0.000000145
      6        6           0.000003050    0.000003813    0.000000531
      7        1          -0.000004052    0.000000915    0.000000426
      8        1           0.000003692   -0.000001980   -0.000000569
      9        1           0.000003276    0.000001476    0.000000059
     10        7           0.000036341   -0.000010069   -0.000004766
     11        7           0.000019545    0.000011793    0.000001247
     12        6           0.000004114    0.000004902    0.000000173
     13        8          -0.000003918    0.000003615    0.000001096
     14        8           0.000000591    0.000005825    0.000001198
     15        1           0.000000207    0.000006479    0.000001074
 -------------------------------------------------------------------
 Cartesian Forces:  Max     0.000046402 RMS     0.000011105

 GradGradGradGradGradGradGradGradGradGradGradGradGradGradGradGradGradGrad
 Berny optimization.
 Internal  Forces:  Max     0.000056538 RMS     0.000010777
 Search for a saddle point.
 Step number   2 out of a maximum of   74
 All quantities printed in internal units (Hartrees-Bohrs-Radians)
 Swaping is turned off.
 Update second derivatives using D2CorX and points    1    2
 ITU=  0  0
     Eigenvalues ---   -0.06741   0.00107   0.00299   0.01096   0.01728
     Eigenvalues ---    0.01807   0.02062   0.02204   0.02307   0.02921
     Eigenvalues ---    0.03135   0.03841   0.06759   0.07076   0.10387
     Eigenvalues ---    0.11570   0.12185   0.15094   0.15236   0.16781
     Eigenvalues ---    0.19681   0.20012   0.21232   0.24373   0.26059
     Eigenvalues ---    0.29148   0.34745   0.35753   0.35907   0.37015
     Eigenvalues ---    0.38421   0.39781   0.42603   0.45197   0.49613
     Eigenvalues ---    0.51089   0.52943   0.84489   1.42304
 Eigenvectors required to have negative eigenvalues:
                          R6        A17       R4        A7        R5
   1                    0.87125  -0.37620  -0.21438  -0.12039  -0.08370
                          A1        A5        A8        A4        A2
   1                   -0.07676   0.07673  -0.06868   0.06164   0.04810
 RFO step:  Lambda0=2.025649824D-08 Lambda=-6.16551235D-08.
 Linear search not attempted -- option 19 set.
 Iteration  1 RMS(Cart)=  0.00029245 RMS(Int)=  0.00000016
 Iteration  2 RMS(Cart)=  0.00000015 RMS(Int)=  0.00000000
 Variable       Old X    -DE/DX   Delta X   Delta X   Delta X     New X
                                 (Linear)    (Quad)   (Total)
    R1        2.68793   0.00000   0.00000   0.00002   0.00002   2.68795
    R2        2.65524   0.00000   0.00000  -0.00002  -0.00002   2.65522
    R3        2.06240   0.00000   0.00000   0.00000   0.00000   2.06240
    R4        2.53689   0.00000   0.00000   0.00012   0.00012   2.53701
    R5        2.64180   0.00000   0.00000   0.00004   0.00004   2.64184
    R6        2.99662   0.00006   0.00000  -0.00018  -0.00018   2.99644
    R7        2.62343   0.00000   0.00000  -0.00003  -0.00003   2.62341
    R8        2.06012   0.00000   0.00000   0.00000   0.00000   2.06012
    R9        2.68149  -0.00001   0.00000   0.00000   0.00000   2.68149
   R10        2.05400   0.00000   0.00000   0.00000   0.00000   2.05399
   R11        2.82504   0.00000   0.00000  -0.00001  -0.00001   2.82503
   R12        2.10229   0.00002   0.00000  -0.00001  -0.00001   2.10228
   R13        2.29137   0.00000   0.00000   0.00000   0.00000   2.29137
   R14        2.57543   0.00000   0.00000   0.00000   0.00000   2.57543
   R15        1.83421   0.00000   0.00000   0.00000   0.00000   1.83421
    A1        2.12647   0.00000   0.00000   0.00007   0.00007   2.12655
    A2        2.10659   0.00000   0.00000  -0.00005  -0.00005   2.10655
    A3        2.05012   0.00000   0.00000  -0.00003  -0.00003   2.05009
    A4        1.92508   0.00000   0.00000  -0.00010  -0.00010   1.92497
    A5        2.34225   0.00000   0.00000   0.00002   0.00002   2.34227
    A6        1.95343   0.00003   0.00000   0.00012   0.00012   1.95355
    A7        1.98751  -0.00003   0.00000  -0.00014  -0.00014   1.98736
    A8        1.97188   0.00000   0.00000   0.00002   0.00002   1.97190
    A9        2.16638   0.00000   0.00000  -0.00001  -0.00001   2.16638
   A10        2.14492   0.00000   0.00000  -0.00002  -0.00002   2.14491
   A11        2.08313   0.00000   0.00000  -0.00003  -0.00003   2.08311
   A12        2.10096   0.00000   0.00000   0.00002   0.00002   2.10097
   A13        2.09910   0.00000   0.00000   0.00001   0.00001   2.09911
   A14        2.11755   0.00000   0.00000   0.00001   0.00001   2.11757
   A15        2.06205   0.00000   0.00000   0.00000   0.00000   2.06205
   A16        2.10358   0.00000   0.00000  -0.00002  -0.00002   2.10357
   A17        2.84104   0.00005   0.00000   0.00098   0.00098   2.84202
   A18        2.18421   0.00000   0.00000   0.00001   0.00001   2.18421
   A19        1.97363   0.00000   0.00000   0.00000   0.00000   1.97363
   A20        2.12534   0.00000   0.00000   0.00000   0.00000   2.12534
   A21        1.85390   0.00000   0.00000   0.00000   0.00000   1.85389
    D1       -0.00001   0.00000   0.00000   0.00001   0.00001   0.00000
    D2        3.14159   0.00000   0.00000   0.00000   0.00000   3.14159
    D3        0.00001   0.00000   0.00000  -0.00001  -0.00001   0.00000
    D4       -3.14158   0.00000   0.00000  -0.00001  -0.00001  -3.14159
    D5       -3.14159   0.00000   0.00000   0.00000   0.00000  -3.14159
    D6        0.00001   0.00000   0.00000  -0.00001  -0.00001   0.00000
    D7        0.00000   0.00000   0.00000   0.00000   0.00000   0.00000
    D8        3.14159   0.00000   0.00000   0.00000   0.00000   3.14159
    D9        0.00000   0.00000   0.00000   0.00000   0.00000   0.00000
   D10       -3.14159   0.00000   0.00000   0.00000   0.00000  -3.14159
   D11       -3.14158   0.00000   0.00000  -0.00001  -0.00001  -3.14159
   D12        0.00001   0.00000   0.00000  -0.00001  -0.00001   0.00000
   D13        0.00008   0.00000   0.00000  -0.00008  -0.00008   0.00000
   D14       -3.14152   0.00000   0.00000  -0.00008  -0.00008   3.14159
   D15        0.00000   0.00000   0.00000   0.00000   0.00000   0.00000
   D16        3.14159   0.00000   0.00000   0.00000   0.00000   3.14159
   D17        3.14159   0.00000   0.00000   0.00000   0.00000   3.14159
   D18        0.00000   0.00000   0.00000   0.00000   0.00000   0.00000
   D19        0.00000   0.00000   0.00000   0.00000   0.00000   0.00000
   D20        3.14159   0.00000   0.00000   0.00000   0.00000   3.14159
   D21        3.14159   0.00000   0.00000   0.00000   0.00000   3.14159
   D22        0.00000   0.00000   0.00000   0.00000   0.00000   0.00000
   D23       -0.00001   0.00000   0.00000   0.00001   0.00001   0.00000
   D24        3.14159   0.00000   0.00000   0.00001   0.00001   3.14159
   D25        3.14158   0.00000   0.00000   0.00001   0.00001   3.14159
   D26       -0.00001   0.00000   0.00000   0.00001   0.00001   0.00000
   D27       -3.14159   0.00000   0.00000   0.00000   0.00000   3.14159
   D28        0.00000   0.00000   0.00000   0.00000   0.00000   0.00000
         Item               Value     Threshold  Converged?
 Maximum Force            0.000057     0.000450     YES
 RMS     Force            0.000011     0.000300     YES
 Maximum Displacement     0.001934     0.001800     NO 
 RMS     Displacement     0.000292     0.001200     YES
 Predicted change in Energy=-2.069931D-08
 GradGradGradGradGradGradGradGradGradGradGradGradGradGradGradGradGradGrad

                          Input orientation:                          
 ---------------------------------------------------------------------
 Center     Atomic      Atomic             Coordinates (Angstroms)
 Number     Number       Type             X           Y           Z
 ---------------------------------------------------------------------
      1          6           0       -1.416672   -1.466983   -1.059194
      2          6           0       -0.014229   -1.233618   -1.103052
      3          6           0        0.248868    0.064479   -0.883730
      4          6           0       -0.541029    1.189917   -0.631014
      5          6           0       -1.898958    0.903081   -0.599592
      6          6           0       -2.333344   -0.430520   -0.814827
      7          1           0       -1.819922   -2.468903   -1.216172
      8          1           0       -0.143967    2.192905   -0.473462
      9          1           0       -2.623103    1.691652   -0.412029
     10          7           0        1.804578    0.368476   -0.924194
     11          7           0        2.907767    0.255398   -1.012508
     12          6           0       -3.789247   -0.768761   -0.786708
     13          8           0       -4.252037   -1.876164   -0.959163
     14          8           0       -4.583982    0.311005   -0.541980
     15          1           0       -5.497114   -0.018063   -0.545556
 ---------------------------------------------------------------------
                    Distance matrix (angstroms):
                    1          2          3          4          5
     1  C    0.000000
     2  C    1.422402   0.000000
     3  C    2.269402   1.342526   0.000000
     4  C    2.830054   2.524650   1.398003   0.000000
     5  C    2.461917   2.893295   2.323175   1.388248   0.000000
     6  C    1.405084   2.471100   2.630131   2.423220   1.418981
     7  H    1.091374   2.190719   3.287618   3.919814   3.428803
     8  H    3.918882   3.486298   2.202915   1.090167   2.181639
     9  H    3.442568   3.980068   3.334428   2.152841   1.086927
    10  N    3.709931   2.430381   1.585650   2.502517   3.755975
    11  N    4.655056   3.280766   2.668853   3.593474   4.867710
    12  C    2.488147   3.816665   4.124327   3.796259   2.530466
    13  O    2.866484   4.288658   4.902033   4.824947   3.659299
    14  O    3.668870   4.856264   4.851186   4.138343   2.750132
    15  H    4.360413   5.643616   5.756516   5.101891   3.714586
                    6          7          8          9         10
     6  C    0.000000
     7  H    2.140021   0.000000
     8  H    3.433985   5.009281   0.000000
     9  H    2.179408   4.313000   2.530048   0.000000
    10  N    4.215774   4.612263   2.707125   4.649458   0.000000
    11  N    5.289499   5.460250   3.654803   5.745774   1.112480
    12  C    1.494943   2.636886   4.707191   2.748438   5.709912
    13  O    2.406679   2.516462   5.802539   3.960062   6.459274
    14  O    2.385304   3.977744   4.822859   2.401691   6.400241
    15  H    3.201885   4.469685   5.792215   3.346774   7.321713
                   11         12         13         14         15
    11  N    0.000000
    12  C    6.778634   0.000000
    13  O    7.470555   1.212541   0.000000
    14  O    7.506716   1.362860   2.251207   0.000000
    15  H    8.422282   1.881093   2.274604   0.970622   0.000000
 Stoichiometry    C7H4N2O2
 Framework group  C1[X(C7H4N2O2)]
 Deg. of freedom    39
 Full point group                 C1      NOp   1
 Largest Abelian subgroup         C1      NOp   1
 Largest concise Abelian subgroup C1      NOp   1
                         Standard orientation:                         
 ---------------------------------------------------------------------
 Center     Atomic      Atomic             Coordinates (Angstroms)
 Number     Number       Type             X           Y           Z
 ---------------------------------------------------------------------
      1          6           0        0.208220   -1.243391    0.000000
      2          6           0       -1.214161   -1.235677    0.000000
      3          6           0       -1.672940    0.026027    0.000000
      4          6           0       -1.064146    1.284512    0.000000
      5          6           0        0.322405    1.215877    0.000000
      6          6           0        0.955979   -0.053804    0.000000
      7          1           0        0.760254   -2.184855    0.000001
      8          1           0       -1.610223    2.228050    0.000001
      9          1           0        0.917736    2.125269    0.000000
     10          7           0       -3.257673    0.079926    0.000000
     11          7           0       -4.331152   -0.212060   -0.000001
     12          6           0        2.447269   -0.158246    0.000000
     13          8           0        3.074314   -1.196066    0.000000
     14          8           0        3.067835    1.055132   -0.000001
     15          1           0        4.021054    0.872148   -0.000001
 ---------------------------------------------------------------------
 Rotational constants (GHZ):      3.8508671      0.5725412      0.4984347
 Standard basis: Aug-CC-pVDZ (5D, 7F)
 There are   289 symmetry adapted basis functions of A   symmetry.
 Integral buffers will be    131072 words long.
 Raffenetti 2 integral format.
 Two-electron integral symmetry is turned on.
   289 basis functions,   517 primitive gaussians,   311 cartesian basis functions
    38 alpha electrons       38 beta electrons
       nuclear repulsion energy       519.9329043285 Hartrees.
 NAtoms=   15 NActive=   15 NUniq=   15 SFac= 1.00D+00 NAtFMM=   50 NAOKFM=F Big=F
 One-electron integrals computed using PRISM.
 NBasis=   289 RedAO= T  NBF=   289
 NBsUse=   289 1.00D-06 NBFU=   289
 Initial guess read from the read-write file.
 B after Tr=     0.000000    0.000000    0.000000
         Rot=    1.000000    0.000000    0.000000    0.000000 Ang=   0.00 deg.
 Initial guess orbital symmetries:
       Occupied  (A) (A) (A) (A) (A) (A) (A) (A) (A) (A) (A) (A)
                 (A) (A) (A) (A) (A) (A) (A) (A) (A) (A) (A) (A)
                 (A) (A) (A) (A) (A) (A) (A) (A) (A) (A) (A) (A)
                 (A) (A)
       Virtual   (A) (A) (A) (A) (A) (A) (A) (A) (A) (A) (A) (A)
                 (A) (A) (A) (A) (A) (A) (A) (A) (A) (A) (A) (A)
                 (A) (A) (A) (A) (A) (A) (A) (A) (A) (A) (A) (A)
                 (A) (A) (A) (A) (A) (A) (A) (A) (A) (A) (A) (A)
                 (A) (A) (A) (A) (A) (A) (A) (A) (A) (A) (A) (A)
                 (A) (A) (A) (A) (A) (A) (A) (A) (A) (A) (A) (A)
                 (A) (A) (A) (A) (A) (A) (A) (A) (A) (A) (A) (A)
                 (A) (A) (A) (A) (A) (A) (A) (A) (A) (A) (A) (A)
                 (A) (A) (A) (A) (A) (A) (A) (A) (A) (A) (A) (A)
                 (A) (A) (A) (A) (A) (A) (A) (A) (A) (A) (A) (A)
                 (A) (A) (A) (A) (A) (A) (A) (A) (A) (A) (A) (A)
                 (A) (A) (A) (A) (A) (A) (A) (A) (A) (A) (A) (A)
                 (A) (A) (A) (A) (A) (A) (A) (A) (A) (A) (A) (A)
                 (A) (A) (A) (A) (A) (A) (A) (A) (A) (A) (A) (A)
                 (A) (A) (A) (A) (A) (A) (A) (A) (A) (A) (A) (A)
                 (A) (A) (A) (A) (A) (A) (A) (A) (A) (A) (A) (A)
                 (A) (A) (A) (A) (A) (A) (A) (A) (A) (A) (A) (A)
                 (A) (A) (A) (A) (A) (A) (A) (A) (A) (A) (A) (A)
                 (A) (A) (A) (A) (A) (A) (A) (A) (A) (A) (A) (A)
                 (A) (A) (A) (A) (A) (A) (A) (A) (A) (A) (A) (A)
                 (A) (A) (A) (A) (A) (A) (A) (A) (A) (A) (A)
 Requested convergence on RMS density matrix=1.00D-08 within 128 cycles.
 Requested convergence on MAX density matrix=1.00D-06.
 Requested convergence on             energy=1.00D-06.
 No special actions if energy rises.
 SCF Done:  E(RB3LYP) =  -529.043817946     A.U. after   10 cycles
             Convg  =    0.8397D-08             -V/T =  2.0061
 Calling FoFJK, ICntrl=      2127 FMM=F ISym2X=0 I1Cent= 0 IOpClX= 0 NMat=1 NMatS=1 NMatT=0.
 ***** Axes restored to original set *****
 -------------------------------------------------------------------
 Center     Atomic                   Forces (Hartrees/Bohr)
 Number     Number              X              Y              Z
 -------------------------------------------------------------------
      1        6          -0.000002364   -0.000000164    0.000000148
      2        6          -0.000000682   -0.000003000   -0.000000538
      3        6          -0.000000190   -0.000002329   -0.000000397
      4        6           0.000001691   -0.000001770   -0.000000445
      5        6           0.000001811    0.000000777    0.000000043
      6        6          -0.000000472    0.000001206    0.000000242
      7        1          -0.000004107    0.000000315    0.000000314
      8        1           0.000003975   -0.000002411   -0.000000679
      9        1           0.000003118    0.000001765    0.000000130
     10        7           0.000000833   -0.000005734   -0.000001067
     11        7          -0.000000363   -0.000008451   -0.000001525
     12        6          -0.000001126    0.000003717    0.000000701
     13        8          -0.000003055    0.000004461    0.000001012
     14        8           0.000000737    0.000005013    0.000000875
     15        1           0.000000195    0.000006606    0.000001186
 -------------------------------------------------------------------
 Cartesian Forces:  Max     0.000008451 RMS     0.000002628

 GradGradGradGradGradGradGradGradGradGradGradGradGradGradGradGradGradGrad
 Berny optimization.
 Internal  Forces:  Max     0.000002338 RMS     0.000000478
 Search for a saddle point.
 Step number   3 out of a maximum of   74
 All quantities printed in internal units (Hartrees-Bohrs-Radians)
 Swaping is turned off.
 Update second derivatives using D2CorX and points    1    3
 ITU=  0  0  0
     Eigenvalues ---   -0.06741   0.00107   0.00299   0.01096   0.01728
     Eigenvalues ---    0.01807   0.02062   0.02204   0.02307   0.02921
     Eigenvalues ---    0.03135   0.03841   0.06759   0.07068   0.10387
     Eigenvalues ---    0.11570   0.12185   0.15094   0.15236   0.16782
     Eigenvalues ---    0.19682   0.20012   0.21233   0.24373   0.26059
     Eigenvalues ---    0.29148   0.34745   0.35753   0.35907   0.37015
     Eigenvalues ---    0.38421   0.39781   0.42603   0.45197   0.49613
     Eigenvalues ---    0.51089   0.52943   0.84489   1.42304
 Eigenvectors required to have negative eigenvalues:
                          R6        A17       R4        A7        R5
   1                    0.87127  -0.37613  -0.21438  -0.12042  -0.08370
                          A1        A5        A8        A4        A2
   1                   -0.07676   0.07673  -0.06868   0.06163   0.04810
 RFO step:  Lambda0=1.120770143D-12 Lambda= 0.00000000D+00.
 Linear search not attempted -- option 19 set.
 Iteration  1 RMS(Cart)=  0.00001218 RMS(Int)=  0.00000000
 Iteration  2 RMS(Cart)=  0.00000000 RMS(Int)=  0.00000000
 Variable       Old X    -DE/DX   Delta X   Delta X   Delta X     New X
                                 (Linear)    (Quad)   (Total)
    R1        2.68795   0.00000   0.00000   0.00000   0.00000   2.68795
    R2        2.65522   0.00000   0.00000   0.00000   0.00000   2.65522
    R3        2.06240   0.00000   0.00000   0.00000   0.00000   2.06240
    R4        2.53701   0.00000   0.00000   0.00000   0.00000   2.53701
    R5        2.64184   0.00000   0.00000   0.00000   0.00000   2.64184
    R6        2.99644   0.00000   0.00000  -0.00001  -0.00001   2.99644
    R7        2.62341   0.00000   0.00000   0.00000   0.00000   2.62341
    R8        2.06012   0.00000   0.00000   0.00000   0.00000   2.06012
    R9        2.68149   0.00000   0.00000   0.00000   0.00000   2.68149
   R10        2.05399   0.00000   0.00000   0.00000   0.00000   2.05399
   R11        2.82503   0.00000   0.00000   0.00000   0.00000   2.82503
   R12        2.10228   0.00000   0.00000   0.00000   0.00000   2.10228
   R13        2.29137   0.00000   0.00000   0.00000   0.00000   2.29137
   R14        2.57543   0.00000   0.00000   0.00000   0.00000   2.57543
   R15        1.83421   0.00000   0.00000   0.00000   0.00000   1.83421
    A1        2.12655   0.00000   0.00000   0.00000   0.00000   2.12655
    A2        2.10655   0.00000   0.00000   0.00000   0.00000   2.10655
    A3        2.05009   0.00000   0.00000   0.00000   0.00000   2.05009
    A4        1.92497   0.00000   0.00000   0.00000   0.00000   1.92497
    A5        2.34227   0.00000   0.00000   0.00000   0.00000   2.34227
    A6        1.95355   0.00000   0.00000  -0.00001  -0.00001   1.95354
    A7        1.98736   0.00000   0.00000   0.00001   0.00001   1.98737
    A8        1.97190   0.00000   0.00000   0.00000   0.00000   1.97190
    A9        2.16638   0.00000   0.00000   0.00000   0.00000   2.16638
   A10        2.14491   0.00000   0.00000   0.00000   0.00000   2.14491
   A11        2.08311   0.00000   0.00000   0.00000   0.00000   2.08311
   A12        2.10097   0.00000   0.00000   0.00000   0.00000   2.10097
   A13        2.09911   0.00000   0.00000   0.00000   0.00000   2.09911
   A14        2.11757   0.00000   0.00000   0.00000   0.00000   2.11757
   A15        2.06205   0.00000   0.00000   0.00000   0.00000   2.06205
   A16        2.10357   0.00000   0.00000   0.00000   0.00000   2.10357
   A17        2.84202   0.00000   0.00000  -0.00003  -0.00003   2.84199
   A18        2.18421   0.00000   0.00000   0.00000   0.00000   2.18421
   A19        1.97363   0.00000   0.00000   0.00000   0.00000   1.97363
   A20        2.12534   0.00000   0.00000   0.00000   0.00000   2.12534
   A21        1.85389   0.00000   0.00000   0.00000   0.00000   1.85389
    D1        0.00000   0.00000   0.00000   0.00000   0.00000   0.00000
    D2        3.14159   0.00000   0.00000   0.00000   0.00000   3.14159
    D3        0.00000   0.00000   0.00000   0.00000   0.00000   0.00000
    D4       -3.14159   0.00000   0.00000   0.00000   0.00000  -3.14159
    D5       -3.14159   0.00000   0.00000   0.00000   0.00000  -3.14159
    D6        0.00000   0.00000   0.00000   0.00000   0.00000   0.00000
    D7        0.00000   0.00000   0.00000   0.00000   0.00000   0.00000
    D8        3.14159   0.00000   0.00000   0.00000   0.00000  -3.14159
    D9        0.00000   0.00000   0.00000   0.00000   0.00000   0.00000
   D10       -3.14159   0.00000   0.00000   0.00000   0.00000   3.14159
   D11       -3.14159   0.00000   0.00000   0.00000   0.00000   3.14159
   D12        0.00000   0.00000   0.00000   0.00000   0.00000   0.00000
   D13        0.00000   0.00000   0.00000   0.00000   0.00000   0.00000
   D14        3.14159   0.00000   0.00000   0.00000   0.00000  -3.14159
   D15        0.00000   0.00000   0.00000   0.00000   0.00000   0.00000
   D16        3.14159   0.00000   0.00000   0.00000   0.00000   3.14159
   D17        3.14159   0.00000   0.00000   0.00000   0.00000   3.14159
   D18        0.00000   0.00000   0.00000   0.00000   0.00000   0.00000
   D19        0.00000   0.00000   0.00000   0.00000   0.00000   0.00000
   D20        3.14159   0.00000   0.00000   0.00000   0.00000   3.14159
   D21        3.14159   0.00000   0.00000   0.00000   0.00000   3.14159
   D22        0.00000   0.00000   0.00000   0.00000   0.00000   0.00000
   D23        0.00000   0.00000   0.00000   0.00000   0.00000   0.00000
   D24        3.14159   0.00000   0.00000   0.00000   0.00000  -3.14159
   D25        3.14159   0.00000   0.00000   0.00000   0.00000   3.14159
   D26        0.00000   0.00000   0.00000   0.00000   0.00000   0.00000
   D27        3.14159   0.00000   0.00000   0.00000   0.00000   3.14159
   D28        0.00000   0.00000   0.00000   0.00000   0.00000   0.00000
         Item               Value     Threshold  Converged?
 Maximum Force            0.000002     0.000450     YES
 RMS     Force            0.000000     0.000300     YES
 Maximum Displacement     0.000077     0.001800     YES
 RMS     Displacement     0.000012     0.001200     YES
 Predicted change in Energy=-5.274609D-11
 Optimization completed.
    -- Stationary point found.
                           ----------------------------
                           !   Optimized Parameters   !
                           ! (Angstroms and Degrees)  !
 --------------------------                            --------------------------
 ! Name  Definition              Value          Derivative Info.                !
 --------------------------------------------------------------------------------
 ! R1    R(1,2)                  1.4224         -DE/DX =    0.0                 !
 ! R2    R(1,6)                  1.4051         -DE/DX =    0.0                 !
 ! R3    R(1,7)                  1.0914         -DE/DX =    0.0                 !
 ! R4    R(2,3)                  1.3425         -DE/DX =    0.0                 !
 ! R5    R(3,4)                  1.398          -DE/DX =    0.0                 !
 ! R6    R(3,10)                 1.5856         -DE/DX =    0.0                 !
 ! R7    R(4,5)                  1.3882         -DE/DX =    0.0                 !
 ! R8    R(4,8)                  1.0902         -DE/DX =    0.0                 !
 ! R9    R(5,6)                  1.419          -DE/DX =    0.0                 !
 ! R10   R(5,9)                  1.0869         -DE/DX =    0.0                 !
 ! R11   R(6,12)                 1.4949         -DE/DX =    0.0                 !
 ! R12   R(10,11)                1.1125         -DE/DX =    0.0                 !
 ! R13   R(12,13)                1.2125         -DE/DX =    0.0                 !
 ! R14   R(12,14)                1.3629         -DE/DX =    0.0                 !
 ! R15   R(14,15)                0.9706         -DE/DX =    0.0                 !
 ! A1    A(2,1,6)              121.8422         -DE/DX =    0.0                 !
 ! A2    A(2,1,7)              120.6962         -DE/DX =    0.0                 !
 ! A3    A(6,1,7)              117.4616         -DE/DX =    0.0                 !
 ! A4    A(1,2,3)              110.2929         -DE/DX =    0.0                 !
 ! A5    A(2,3,4)              134.2024         -DE/DX =    0.0                 !
 ! A6    A(2,3,10)             111.9301         -DE/DX =    0.0                 !
 ! A7    A(4,3,10)             113.8675         -DE/DX =    0.0                 !
 ! A8    A(3,4,5)              112.9816         -DE/DX =    0.0                 !
 ! A9    A(3,4,8)              124.1242         -DE/DX =    0.0                 !
 ! A10   A(5,4,8)              122.8942         -DE/DX =    0.0                 !
 ! A11   A(4,5,6)              119.3532         -DE/DX =    0.0                 !
 ! A12   A(4,5,9)              120.3768         -DE/DX =    0.0                 !
 ! A13   A(6,5,9)              120.27           -DE/DX =    0.0                 !
 ! A14   A(1,6,5)              121.3277         -DE/DX =    0.0                 !
 ! A15   A(1,6,12)             118.1468         -DE/DX =    0.0                 !
 ! A16   A(5,6,12)             120.5255         -DE/DX =    0.0                 !
 ! A17   A(3,10,11)            162.8358         -DE/DX =    0.0                 !
 ! A18   A(6,12,13)            125.1463         -DE/DX =    0.0                 !
 ! A19   A(6,12,14)            113.0807         -DE/DX =    0.0                 !
 ! A20   A(13,12,14)           121.773          -DE/DX =    0.0                 !
 ! A21   A(12,14,15)           106.2203         -DE/DX =    0.0                 !
 ! D1    D(6,1,2,3)              0.0            -DE/DX =    0.0                 !
 ! D2    D(7,1,2,3)            180.0            -DE/DX =    0.0                 !
 ! D3    D(2,1,6,5)              0.0            -DE/DX =    0.0                 !
 ! D4    D(2,1,6,12)          -180.0            -DE/DX =    0.0                 !
 ! D5    D(7,1,6,5)           -180.0            -DE/DX =    0.0                 !
 ! D6    D(7,1,6,12)             0.0            -DE/DX =    0.0                 !
 ! D7    D(1,2,3,4)              0.0            -DE/DX =    0.0                 !
[...]
 ! R14   R(12,14)                1.3629         -DE/DX =    0.0                 !
 ! R15   R(14,15)                0.9706         -DE/DX =    0.0                 !
 ! A1    A(2,1,6)              121.8422         -DE/DX =    0.0                 !
 ! A2    A(2,1,7)              120.6962         -DE/DX =    0.0                 !
 ! A3    A(6,1,7)              117.4616         -DE/DX =    0.0                 !
 ! A4    A(1,2,3)              110.2929         -DE/DX =    0.0                 !
 ! A5    A(2,3,4)              134.2024         -DE/DX =    0.0                 !
 ! A6    A(2,3,10)             111.9301         -DE/DX =    0.0                 !
 ! A7    A(4,3,10)             113.8675         -DE/DX =    0.0                 !
 ! A8    A(3,4,5)              112.9816         -DE/DX =    0.0                 !
 ! A9    A(3,4,8)              124.1242         -DE/DX =    0.0                 !
 ! A10   A(5,4,8)              122.8942         -DE/DX =    0.0                 !
 ! A11   A(4,5,6)              119.3532         -DE/DX =    0.0                 !
 ! A12   A(4,5,9)              120.3768         -DE/DX =    0.0                 !
 ! A13   A(6,5,9)              120.27           -DE/DX =    0.0                 !
 ! A14   A(1,6,5)              121.3277         -DE/DX =    0.0                 !
 ! A15   A(1,6,12)             118.1468         -DE/DX =    0.0                 !
 ! A16   A(5,6,12)             120.5255         -DE/DX =    0.0                 !
 ! A17   A(3,10,11)            162.8358         -DE/DX =    0.0                 !
 ! A18   A(6,12,13)            125.1463         -DE/DX =    0.0                 !
 ! A19   A(6,12,14)            113.0807         -DE/DX =    0.0                 !
 ! A20   A(13,12,14)           121.773          -DE/DX =    0.0                 !
 ! A21   A(12,14,15)           106.2203         -DE/DX =    0.0                 !
 ! D1    D(6,1,2,3)              0.0            -DE/DX =    0.0                 !
 ! D2    D(7,1,2,3)            180.0            -DE/DX =    0.0                 !
 ! D3    D(2,1,6,5)              0.0            -DE/DX =    0.0                 !
 ! D4    D(2,1,6,12)           180.0            -DE/DX =    0.0                 !
 ! D5    D(7,1,6,5)           -180.0            -DE/DX =    0.0                 !
 ! D6    D(7,1,6,12)             0.0            -DE/DX =    0.0                 !
 ! D7    D(1,2,3,4)              0.0            -DE/DX =    0.0                 !
 ! D8    D(1,2,3,10)           180.0            -DE/DX =    0.0                 !
 ! D9    D(2,3,4,5)              0.0            -DE/DX =    0.0                 !
 ! D10   D(2,3,4,8)           -180.0            -DE/DX =    0.0                 !
 ! D11   D(10,3,4,5)           180.0            -DE/DX =    0.0                 !
 ! D12   D(10,3,4,8)             0.0            -DE/DX =    0.0                 !
 ! D13   D(2,3,10,11)           -0.0001         -DE/DX =    0.0                 !
 ! D14   D(4,3,10,11)         -180.0001         -DE/DX =    0.0                 !
 ! D15   D(3,4,5,6)              0.0            -DE/DX =    0.0                 !
 ! D16   D(3,4,5,9)           -180.0            -DE/DX =    0.0                 !
 ! D17   D(8,4,5,6)            180.0            -DE/DX =    0.0                 !
 ! D18   D(8,4,5,9)              0.0            -DE/DX =    0.0                 !
 ! D19   D(4,5,6,1)              0.0            -DE/DX =    0.0                 !
 ! D20   D(4,5,6,12)           180.0            -DE/DX =    0.0                 !
 ! D21   D(9,5,6,1)            180.0            -DE/DX =    0.0                 !
 ! D22   D(9,5,6,12)             0.0            -DE/DX =    0.0                 !
 ! D23   D(1,6,12,13)            0.0            -DE/DX =    0.0                 !
 ! D24   D(1,6,12,14)         -180.0            -DE/DX =    0.0                 !
 ! D25   D(5,6,12,13)          180.0            -DE/DX =    0.0                 !
 ! D26   D(5,6,12,14)            0.0            -DE/DX =    0.0                 !
 ! D27   D(6,12,14,15)        -180.0            -DE/DX =    0.0                 !
 ! D28   D(13,12,14,15)          0.0            -DE/DX =    0.0                 !
 --------------------------------------------------------------------------------
 GradGradGradGradGradGradGradGradGradGradGradGradGradGradGradGradGradGrad

 1\1\GINC-LC06-1-7\Freq\RB3LYP\Aug-CC-pVDZ\C7H4N2O2\UBUNTU\19-Dec-2018\
 0\\#N Geom=AllCheck Guess=TCheck SCRF=Check GenChk RB3LYP/Aug-CC-pVDZ 
 Freq\\4-HOOC-C6H3\\0,1\C,-1.4166716858,-1.4669832087,-1.0591936548\C,-
 0.0142288856,-1.2336180534,-1.1030516211\C,0.2488679737,0.0644786811,-
 0.8837298269\C,-0.5410289224,1.1899168651,-0.631013755\C,-1.8989579208
 ,0.9030805479,-0.5995915669\C,-2.3333437005,-0.4305195482,-0.814826807
 2\H,-1.8199215441,-2.4689032332,-1.2161717082\H,-0.1439673229,2.192904
 6389,-0.4734621068\H,-2.6231027805,1.6916520732,-0.4120285447\N,1.8045
 778339,0.368476185,-0.9241937523\N,2.9077668444,0.2553975898,-1.012508
 4802\C,-3.7892473272,-0.768760797,-0.7867083976\O,-4.2520370603,-1.876
 1636179,-0.9591630861\O,-4.5839817876,0.3110045959,-0.5419802882\H,-5.
 4971137143,-0.0180627185,-0.545556404\\Version=EM64L-G09RevB.01\State=
 1-A\HF=-529.0438179\RMSD=4.926e-09\RMSF=2.629e-06\ZeroPoint=0.0971899\
 Thermal=0.1063569\Dipole=0.5679453,1.8490624,0.3005386\DipoleDeriv=0.0
 952139,0.2803231,0.0426116,0.2201957,0.3569469,0.0582793,0.0317036,0.0
 545838,-0.0309491,-0.2854446,-0.0074726,-0.004191,-0.2582791,-1.064903
 5,-0.1171613,-0.0496903,-0.1325758,-0.3525744,0.0338924,0.1658473,0.03
 3959,0.1194971,0.7891319,0.118237,0.0255502,0.1153884,0.1162556,0.1278
 29,0.1139317,0.0089054,-0.1353302,0.054525,0.0297412,-0.036314,0.01442
 16,-0.0587216,-0.1455962,-0.1746268,-0.0302957,-0.0174663,-0.101716,0.
 0049487,-0.0017846,0.0146078,-0.1203178,-0.5493621,-0.0686829,0.022788
 9,-0.0109627,0.0596488,0.0071109,0.0332602,0.0106582,0.024055,0.050897
 8,-0.0305314,-0.0031521,-0.0729775,0.0024094,-0.0113562,-0.0108526,-0.
 0139648,0.0878648,0.0158928,-0.0819054,-0.0066623,-0.0246332,-0.050861
 ,-0.0347896,0.0037276,-0.0312696,0.1433526,0.072539,0.0503439,0.012942
 6,0.0425646,0.0414403,-0.0195026,0.0115314,-0.0199807,0.1301906,1.4955
 574,0.2912579,-0.0335688,-0.1563594,-0.3010164,-0.0612612,-0.1147716,-
 0.0887711,0.0805942,-1.2445799,-0.5861649,-0.0262741,0.1952914,0.25294
 92,0.0233407,0.1154915,0.0713682,0.0639765,2.1140827,0.0171259,-0.1092
 583,0.0074838,1.5230852,0.2239972,-0.1110075,0.2234045,0.3331672,-1.02
 65565,-0.3575795,-0.0231603,-0.2953086,-1.0016382,-0.100445,-0.0118634
 ,-0.0966179,-0.3647108,-1.0772727,0.4479919,0.1264218,0.4975245,-0.799
 2631,-0.1134143,0.1354077,-0.11037,-0.3709905,0.322907,-0.0598581,-0.0
 110667,-0.1112403,0.2392616,-0.0077247,-0.0203881,-0.0108827,0.3188076
 \Polar=174.9118759,14.3730231,111.1673065,-4.4886165,8.498321,61.27044
 04\PG=C01 [X(C7H4N2O2)]\NImag=1\\0.59367996,0.05672988,0.66763948,-0.0
 1742308,0.09173715,0.16045323,-0.27277728,-0.06390934,0.00212474,0.421
 49407,-0.05269721,-0.06033415,0.00128442,0.15677717,0.45225108,0.00415
 878,0.00197353,-0.04945904,0.00635447,0.06113935,0.07282130,-0.0066608
 5,-0.04575714,-0.00852193,-0.08747329,0.01501338,0.00593363,0.20187213
 ,-0.04630275,-0.03281686,-0.00124697,-0.08314215,-0.33120752,-0.048581
 81,-0.14224582,0.67286765,-0.00862093,-0.00128052,-0.00995896,-0.01187
 304,-0.05461441,-0.04442170,-0.03245659,0.11382011,0.11629265,-0.05422
 434,0.02412786,0.00744194,0.05125379,0.02046469,0.00167223,-0.11347984
 ,0.08155124,0.01850557,0.65490109,0.01945624,-0.01104202,-0.00240852,-
 0.00985202,-0.02928984,-0.00798361,0.11607363,-0.28379382,-0.04898527,
 0.05973394,0.72277114,0.00659445,-0.00269564,-0.00525136,-0.00382764,-
 0.00984686,0.01650460,0.02476841,-0.04686353,-0.06312086,-0.02166928,0
 .10458973,0.14631167,0.05559396,0.00140942,-0.00252755,-0.03095234,-0.
 02642815,-0.00333812,-0.06449467,0.05326983,0.01429103,-0.34848835,-0.
 07889907,0.00300751,0.72092589,0.04370677,-0.05035602,-0.01369150,-0.0
 2810613,-0.01644964,0.00005973,-0.00788435,0.03242865,0.00440954,-0.01
 675679,-0.13050245,-0.01055114,-0.05086022,0.64777703,0.00514574,-0.01
 109194,0.00797985,-0.00364251,-0.00004338,-0.00704109,0.00319685,0.000
 65101,0.01071480,0.01428093,-0.00673189,-0.06876363,-0.04496913,0.0953
 5781,0.15943146,-0.18709501,0.11495284,0.02805614,-0.04099891,0.007090
 34,0.00476039,-0.01629140,0.00364173,0.00108978,-0.01195314,-0.0324588
 2,-0.00455429,-0.13159817,-0.06952160,-0.00884751,0.61168976,0.0577186
 7,-0.23430521,-0.03337086,0.04349537,0.03099530,0.00013286,0.02566810,
 -0.03680689,-0.00656603,-0.07504411,0.00819751,0.00432970,-0.01519248,
 -0.26981421,-0.03525261,-0.00877661,0.65960216,0.01767312,-0.03688844,
 -0.07768839,0.01136472,0.00237030,0.01525899,0.00508566,-0.00521229,-0
 .01056719,-0.01227982,0.00171241,0.01082010,0.00100850,-0.03191357,-0.
 07619637,-0.02944804,0.09145432,0.17685486,-0.08482426,-0.09264089,-0.
 01424549,-0.01512317,-0.02114909,-0.00283768,-0.00331280,-0.00624375,-
 0.00048722,-0.00107032,0.00016762,0.00000528,-0.00257798,0.00266659,0.
 00105989,0.00974076,0.01896521,0.00330760,0.09713443,-0.08561261,-0.29
 466377,-0.04036480,-0.00252462,0.00240341,0.00038578,-0.00061511,0.001
 43005,-0.00100706,-0.00001291,0.00095904,0.00044314,0.00386035,-0.0009
 6991,-0.00164614,-0.00875731,-0.01924292,-0.00432741,0.09713339,0.3108
 1908,-0.01297046,-0.03993285,-0.04960501,0.00054104,0.00153044,0.00137
 655,0.00053389,-0.00066113,0.00703689,-0.00002748,0.00043205,-0.001399
 20,0.00127646,-0.00157277,0.00643248,-0.00172164,-0.00603122,0.0065894
 1,0.01320750,0.04582386,0.03281962,-0.00174720,0.00122306,0.00028103,-
 0.00044593,0.00026703,0.00042982,0.00946644,0.02084865,0.00319272,-0.0
 9305180,-0.09319975,-0.01319702,-0.00393844,-0.02806172,-0.00457181,-0
 .00488218,-0.00009045,0.00083153,0.00020719,-0.00007523,-0.00015932,0.
 09160722,0.00061508,0.00098112,0.00028252,0.00471212,-0.00236875,-0.00
 176414,-0.01211954,-0.01527300,-0.00200316,-0.09370528,-0.29626807,-0.
 04205973,0.00035689,0.00028191,-0.00078808,-0.00020487,0.00215094,-0.0
 0121439,-0.00011389,-0.00012502,0.00037672,0.10167024,0.30985610,0.000
 17075,0.00024515,-0.00075065,0.00123621,-0.00149095,0.00541284,-0.0027
 8814,-0.00402937,-0.00068475,-0.01328872,-0.04209079,-0.03949611,0.000
 58368,0.00095852,0.00464318,0.00081077,-0.00122143,0.00864301,-0.00016
 633,0.00037435,-0.00208487,0.01415761,0.04599769,0.02933394,-0.0001005
 1,-0.00324744,-0.00031212,-0.00043324,0.00027482,-0.00001512,-0.002398
 96,-0.00306467,-0.00000742,-0.01500591,0.02223403,0.00524798,-0.183557
 70,0.14174563,0.03475629,0.00963096,-0.00726661,-0.00174343,0.00050328
 ,-0.00050470,-0.00009285,0.00124535,-0.00004512,-0.00038967,0.19494465
 ,-0.00359674,-0.00418628,-0.00133782,-0.00062196,0.00036672,0.00037515
 ,-0.00083164,0.00054457,-0.00103407,-0.00769251,0.00888227,0.00122173,
 0.13998844,-0.21132852,-0.04033058,0.02051418,-0.01435399,-0.00435699,
 0.00109747,-0.00079972,-0.00030003,0.00054809,0.00046400,0.00095061,-0
 .14959142,0.21914660,-0.00037549,-0.00135928,0.00418315,-0.00017781,0.
 00032004,-0.00142151,0.00039768,-0.00089683,0.00633926,-0.00018109,-0.
 00061755,0.00465295,0.03443752,-0.04043858,-0.04589342,0.00329637,-0.0
 0264959,0.00202982,0.00019781,-0.00020156,0.00043360,-0.00028205,0.000
 98707,-0.00476530,-0.03756879,0.04437379,0.03558394,-0.00341748,-0.007
 86694,0.00009152,-0.03594020,-0.08192132,-0.01401660,0.13117575,0.1098
 6173,0.01102420,-0.07911865,0.00122489,0.00430955,0.01282926,0.0266649
 7,0.00452208,0.00750143,-0.01041160,-0.00255719,-0.00067742,0.00078956
 ,0.00032604,0.00302049,-0.00334828,-0.00081889,-0.00253349,-0.00176800
 ,-0.00003870,1.32308263,-0.01113155,0.01377964,-0.00067886,-0.01663082
 ,-0.07206495,-0.00802561,0.06643378,0.00519983,-0.00064794,0.01030842,
 0.02090703,0.00544760,0.00823167,0.00257910,-0.00143478,0.00009257,-0.
 01220010,-0.00160689,-0.00021894,0.00011769,-0.00038190,-0.00285849,0.
 00076827,0.00039132,0.00129725,0.00067344,-0.00033044,-0.17766285,0.06
 991421,-0.00050071,-0.00087951,0.02116411,-0.00217207,-0.00401283,-0.0
 2278581,0.00314576,-0.00331705,-0.01453029,0.00595743,0.00600587,-0.01
 189062,0.00117804,-0.00256770,0.00716103,-0.00065159,-0.00096128,-0.00
 350818,0.00014308,-0.00044390,0.00220769,-0.00073003,0.00042143,-0.000
 29909,0.00051738,-0.00014205,0.00199787,-0.11118187,0.01662533,0.04830
 863,-0.00274768,0.01658876,0.00273768,0.01524899,-0.01722181,-0.003513
 14,-0.05226871,0.00644077,0.00436870,0.00692319,-0.00328452,-0.0006110
 8,-0.00454378,-0.00312821,-0.00041253,-0.00350578,-0.00016509,0.000277
 49,0.00071243,-0.00057584,-0.00020000,-0.00149784,0.00186275,0.0004092
 8,0.00020197,0.00010952,-0.00004285,-1.35252714,0.12356860,0.10463624,
 1.39381753,0.00232646,-0.00791546,-0.00027840,-0.00748653,0.02437293,0
 .00326320,-0.01458266,-0.00731363,-0.00039478,0.00006312,-0.00557060,-
 0.00222549,-0.00167791,-0.00106496,0.00027683,0.00052409,0.00398935,0.
 00042004,-0.00016775,0.00007094,0.00017593,0.00122149,-0.00052202,-0.0
 0010868,-0.00034989,-0.00023133,0.00012801,0.14510103,-0.03091319,-0.0
 1185268,-0.12552744,0.02574728,0.00015031,-0.00115494,-0.00738781,-0.0
 0174702,0.00386149,0.00972945,0.00055482,-0.00168682,-0.00053725,-0.00
 000377,-0.00201974,0.00630935,-0.00014944,0.00036598,-0.00194688,0.000
 40250,0.00046239,0.00155554,-0.00012596,0.00020102,-0.00079780,0.00029
 295,-0.00014810,-0.00038162,-0.00012619,0.00009978,-0.00079258,0.10854
 246,-0.01052933,-0.02331616,-0.10797905,0.01104023,0.01605558,-0.03114
 326,0.00867118,0.00376544,-0.00142731,-0.00206177,0.00001401,0.0068320
 4,0.00673978,0.00115345,0.00502222,0.00126883,0.00041521,-0.00880797,-
 0.01593386,-0.00236213,-0.18788862,-0.02375683,0.00188481,0.00045746,-
 0.00195206,-0.00055023,0.00114659,0.00048810,0.00006791,0.00143171,0.0
 0294051,0.00026495,-0.00950852,-0.00092388,-0.00000166,0.00464759,-0.0
 0002609,-0.00014650,0.64511400,0.01549089,0.01978035,0.00181485,0.0065
 3935,-0.00187515,-0.00162857,0.00175201,-0.00411503,-0.00188921,-0.002
 48980,-0.00647828,-0.00247948,-0.03062712,-0.00220569,0.00152012,-0.00
 594514,-0.09933687,-0.00185496,0.00237057,-0.00338065,-0.00026313,-0.0
 0140666,0.00000275,-0.00006013,-0.00068119,-0.00188019,0.00023358,-0.0
 0122782,-0.00023141,0.00126859,0.00132896,-0.00014653,-0.00053291,0.15
 925334,0.84951896,0.00500262,0.00223400,0.00462618,0.00157438,-0.00109
 994,0.00459025,0.00024858,-0.00219578,0.00529167,-0.00026666,-0.002710
 48,0.00755747,-0.00502767,0.00061706,0.00021192,0.00511609,-0.00076025
 ,-0.08755004,0.00023395,0.00000253,-0.00274725,-0.00027582,-0.00017658
 ,0.00079567,-0.00039207,0.00001099,-0.00291085,-0.00005678,0.00124992,
 -0.00657805,0.00009932,-0.00044964,0.00225315,0.00190403,0.10695149,0.
 22530608,-0.00087905,-0.00244739,-0.00037616,0.00091116,0.00103071,0.0
 0011900,-0.00153785,-0.00280717,-0.00045699,-0.00198305,-0.00251558,-0
 .00043786,-0.00648250,0.00449723,0.00138677,-0.01885293,-0.04476390,-0
 .00573802,-0.00154316,-0.00132393,-0.00015452,-0.00088717,-0.00007624,
 0.00002256,-0.00001523,-0.00045617,-0.00005397,0.00318644,0.00012881,-
 0.00012510,-0.00197008,0.00009203,0.00012111,-0.20846882,-0.21093485,-
 0.03007305,0.19949968,0.00470378,-0.00753953,-0.00169762,0.00034428,0.
 00254994,0.00047682,-0.00128105,-0.00171413,-0.00010753,-0.00152254,0.
 00008309,0.00041378,-0.00132375,0.00376502,0.00025520,-0.02991138,-0.0
 1889794,-0.00520305,-0.00083074,0.00261110,0.00055184,-0.00032919,-0.0
 0000187,0.00007342,0.00066635,0.00092245,0.00004417,0.00177258,0.00092
 075,-0.00008173,-0.00076201,-0.00025521,0.00004971,-0.21781737,-0.5875
 0182,-0.07955923,0.23856744,0.70682034,0.00092116,-0.00125811,-0.00006
 023,-0.00000553,0.00043463,-0.00011587,-0.00018013,-0.00001373,-0.0006
 7884,-0.00025770,0.00047481,-0.00158000,0.00033077,-0.00010256,0.00276
 782,-0.00304357,-0.00429021,0.01932496,-0.00006504,0.00058215,-0.00003
 974,-0.00002333,0.00005787,-0.00028312,0.00014968,0.00011316,0.0004645
 4,0.00017310,0.00001930,0.00076361,-0.00003382,-0.00000278,-0.00026949
 ,-0.03132163,-0.07998223,-0.08774147,0.03295929,0.10783442,0.04912177,
 -0.00301347,-0.00684120,-0.00097640,-0.00296772,0.00037272,0.00024517,
 -0.00182920,0.00096821,0.00023679,0.00017512,0.00022277,-0.00001414,-0
 .00482282,0.00042566,0.00040782,-0.03614864,0.03515500,0.00922298,0.00
 052638,0.00000470,-0.00005012,-0.00025440,-0.00010232,-0.00000757,-0.0
 0391589,-0.00048443,0.00016847,0.00331627,-0.00049827,-0.00023730,-0.0
 0269783,0.00045815,0.00022884,-0.17533620,0.07018420,0.01978162,0.0331
 9613,0.01499902,0.00242305,0.62078885,-0.00238187,0.00010722,-0.000068
 74,0.00007673,0.00073891,0.00014363,0.00057289,0.00088180,0.00027613,0
 .00104830,0.00097857,0.00024236,-0.00135828,-0.00360526,-0.00067147,0.
 00623389,0.00519996,-0.00128080,-0.00109195,0.00086880,0.00027970,0.00
 026588,0.00006354,0.00000890,-0.00140276,0.00117563,0.00025321,-0.0013
 6309,0.00040392,-0.00001093,0.00083703,-0.00020046,-0.00002854,0.03944
 283,-0.18058480,-0.02418388,0.02761387,-0.09964783,-0.02491729,0.05923
 146,0.37911420,-0.00016742,0.00020533,0.00134061,0.00019147,0.00012544
 ,-0.00006783,0.00016507,0.00025184,-0.00079884,0.00013562,0.00029310,-
 0.00066772,0.00008418,-0.00078110,0.00040933,0.00397631,-0.00305829,0.
 00934893,-0.00024907,0.00021230,-0.00024920,0.00005922,0.00003153,-0.0
 0007353,0.00000187,0.00019676,0.00029071,-0.00039419,-0.00006409,0.000
 93859,0.00029757,-0.00000525,-0.00034596,0.01420473,-0.02607324,-0.066
 24224,0.00471156,-0.02414198,0.02367870,-0.02508567,0.05828022,0.04990
 546,-0.00064353,-0.00099266,-0.00011578,-0.00036861,0.00018847,0.00003
 317,0.00040120,0.00048435,0.00003995,0.00009998,-0.00017219,-0.0000370
 8,0.00091560,0.00054603,0.00004925,0.00065186,0.00446534,0.00111009,-0
 .00015283,0.00016633,0.00004168,0.00001168,0.00001037,0.00000056,0.000
 00301,-0.00015532,-0.00004205,-0.00038934,-0.00013629,0.00002239,0.000
 20712,0.00003188,-0.00001506,-0.04207092,-0.00360674,0.00213147,0.0058
 2641,-0.00727541,-0.00202629,-0.42701659,-0.12772493,0.00206874,0.4625
 2497,0.00097496,0.00087148,0.00002513,0.00032856,-0.00008830,0.0000336
 7,-0.00019646,-0.00031168,0.00002420,-0.00007364,0.00016643,0.00003382
 ,-0.00074960,-0.00053505,-0.00007009,0.00252608,-0.00517710,-0.0020982
 9,0.00005614,-0.00009813,-0.00002749,-0.00002296,-0.00000989,0.0000014
 0,-0.00006427,0.00060433,0.00015398,0.00015515,0.00014577,-0.00005155,
 -0.00007147,-0.00004711,0.00001980,0.04366728,0.01843435,0.00006979,-0
 .00660485,-0.00211437,0.00105056,-0.17409567,-0.10549419,-0.00547255,0
 .13417075,0.09365346,0.00024117,0.00014606,0.00041432,0.00005859,0.000
 04228,-0.00038113,-0.00008356,-0.00001764,-0.00037659,-0.00001920,0.00
 003988,0.00001336,-0.00018579,-0.00014972,0.00008954,0.00075829,-0.002
 21747,0.00508456,0.00002169,-0.00003426,0.00002684,-0.00000549,-0.0000
 0065,-0.00000961,-0.00002553,0.00015958,-0.00019217,0.00007527,-0.0000
 3364,0.00036665,-0.00003381,0.00001345,-0.00012751,0.01070760,0.002975
 25,0.00313752,-0.00190464,0.00109178,-0.00535262,-0.00634353,-0.008322
 50,-0.01746701,-0.00326106,0.00630762,0.01477385\\0.00000242,0.0000000
 9,-0.00000017,0.00000065,0.00000305,0.00000055,0.00000018,0.00000225,0
 .00000038,-0.00000171,0.00000179,0.00000045,-0.00000186,-0.00000071,-0
 .00000003,0.00000054,-0.00000116,-0.00000024,0.00000411,-0.00000031,-0
 .00000031,-0.00000397,0.00000243,0.00000068,-0.00000311,-0.00000177,-0
 .00000013,-0.00000073,0.00000573,0.00000106,0.00000029,0.00000845,0.00
 000153,0.00000107,-0.00000375,-0.00000070,0.00000304,-0.00000445,-0.00
 000101,-0.00000074,-0.00000503,-0.00000088,-0.00000019,-0.00000661,-0.
 00000119\\\@


 KINETICS       FACT
 ---------  =  -------
 MECHANISM     FICTION
 Job cpu time:  0 days  1 hours 14 minutes 52.9 seconds.
 File lengths (MBytes):  RWF=    130 Int=      0 D2E=      0 Chk=      7 Scr=      1
 Normal termination of Gaussian 09 at Wed Dec 19 06:49:03 2018.
