
                                 *****************
                                 * O   R   C   A *
                                 *****************

           --- An Ab Initio, DFT and Semiempirical electronic structure package ---

                  #######################################################
                  #                        -***-                        #
                  #          Department of theory and spectroscopy      #
                  #               Directorship: Frank Neese             #
                  #        Max Planck Institute fuer Kohlenforschung    #
                  #                Kaiser Wilhelm Platz 1               #
                  #                 D-45470 Muelheim/Ruhr               #
                  #                      Germany                        #
                  #                                                     #
                  #                  All rights reserved                #
                  #                        -***-                        #
                  #######################################################


                         Program Version 4.1.0  - RELEASE  -


 With contributions from (in alphabetic order):
   Daniel Aravena         : Magnetic Properties
   Michael Atanasov       : Ab Initio Ligand Field Theory
   Alexander A. Auer      : GIAO ZORA
   Ute Becker             : Parallelization
   Giovanni Bistoni       : ED, Open-shell LED
   Martin Brehm           : Molecular dynamics
   Dmytro Bykov           : SCF Hessian
   Vijay G. Chilkuri      : MRCI spin determinant printing
   Dipayan Datta          : RHF DLPNO-CCSD density
   Achintya Kumar Dutta   : EOM-CC, STEOM-CC
   Dmitry Ganyushin       : Spin-Orbit,Spin-Spin,Magnetic field MRCI
   Miquel Garcia          : C-PCM Hessian
   Yang Guo               : DLPNO-NEVPT2, CIM, IAO-localization
   Andreas Hansen         : Spin unrestricted coupled pair/coupled cluster methods
   Benjamin Helmich-Paris : CASSCF linear response (MC-RPA)
   Lee Huntington         : MR-EOM, pCC
   Robert Izsak           : Overlap fitted RIJCOSX, COSX-SCS-MP3, EOM
   Christian Kollmar      : KDIIS, OOCD, Brueckner-CCSD(T), CCSD density
   Simone Kossmann        : Meta GGA functionals, TD-DFT gradient, OOMP2, MP2 Hessian
   Martin Krupicka        : AUTO-CI
   Lucas Lang             : DCDCAS
   Dagmar Lenk            : GEPOL surface, SMD
   Dimitrios Liakos       : Extrapolation schemes; parallel MDCI
   Dimitrios Manganas     : ROCIS; embedding schemes
   Dimitrios Pantazis     : SARC Basis sets
   Taras Petrenko         : DFT Hessian,TD-DFT gradient, ASA, ECA, R-Raman, ABS, FL, XAS/XES, NRVS
   Peter Pinski           : DLPNO-MP2, DLPNO-MP2 Gradient
   Christoph Reimann      : Effective Core Potentials
   Marius Retegan         : Local ZFS, SOC
   Christoph Riplinger    : Optimizer, TS searches, QM/MM, DLPNO-CCSD(T), (RO)-DLPNO pert. Triples
   Tobias Risthaus        : Range-separated hybrids, TD-DFT gradient, RPA, STAB
   Michael Roemelt        : Restricted open shell CIS
   Masaaki Saitow         : Open-shell DLPNO
   Barbara Sandhoefer     : DKH picture change effects
   Avijit Sen             : IP-ROCIS
   Kantharuban Sivalingam : CASSCF convergence, NEVPT2, FIC-MRCI
   Bernardo de Souza      : ESD, SOC TD-DFT
   Georgi Stoychev        : AutoAux, RI-MP2 NMR
   Willem Van den Heuvel  : Paramagnetic NMR
   Boris Wezisla          : Elementary symmetry handling
   Frank Wennmohs         : Technical directorship


 We gratefully acknowledge several colleagues who have allowed us to
 interface, adapt or use parts of their codes:
   Stefan Grimme, W. Hujo, H. Kruse,             : VdW corrections, initial TS optimization,
                  C. Bannwarth                     DFT functionals, gCP, sTDA/sTD-DF
   Ed Valeev                                     : LibInt (2-el integral package), F12 methods
   Garnet Chan, S. Sharma, J. Yang, R. Olivares  : DMRG
   Ulf Ekstrom                                   : XCFun DFT Library
   Mihaly Kallay                                 : mrcc  (arbitrary order and MRCC methods)
   Andreas Klamt, Michael Diedenhofen            : otool_cosmo (COSMO solvation model)
   Jiri Pittner, Ondrej Demel                    : Mk-CCSD
   Frank Weinhold                                : gennbo (NPA and NBO analysis)
   Christopher J. Cramer and Donald G. Truhlar   : smd solvation model
   Lars Goerigk                                  : TD-DFT with DH, B97 family of functionals
   V. Asgeirsson, H. Jonsson                     : NEB implementation
   FAccTs GmbH                                   : IRC, NEB, NEB-TS, Multilevel


 Your calculation uses the libint2 library for the computation of 2-el integrals
 For citations please refer to: http://libint.valeyev.net

 This ORCA versions uses:
   CBLAS   interface :  Fast vector & matrix operations
   LAPACKE interface :  Fast linear algebra routines
   SCALAPACK package :  Parallel linear algebra routines


----- Orbital basis set information -----
Your calculation utilizes the basis: aug-cc-pVDZ 
    H, B-Ne : Obtained from the ccRepo (grant-hill.group.shef.ac.uk/ccrepo) Feb. 2017
              R. A. Kendall, T. H. Dunning, Jr., R. J. Harrison, J. Chem. Phys. 96, 6796 (1992)
         He : Obtained from the ccRepo (grant-hill.group.shef.ac.uk/ccrepo) Feb. 2017
              D. E. Woon, T. H. Dunning, Jr., J. Chem. Phys. 100, 2975 (1994)
  Li-Be, Na : Obtained from the ccRepo (grant-hill.group.shef.ac.uk/ccrepo) Feb. 2017
              B. P. Prascher, D. E. Woon, K. A. Peterson, T. H. Dunning, Jr., A. K. Wilson, Theor. Chem. Acc. 128, 69 (2011)
         Mg : Obtained from the Peterson Research Group Website (tyr0.chem.wsu.edu/~kipeters) Feb. 2017
              B. P. Prascher, D. E. Woon, K. A. Peterson, T. H. Dunning, Jr., A. K. Wilson, Theor. Chem. Acc. 128, 69 (2011)
      Al-Ar : Obtained from the ccRepo (grant-hill.group.shef.ac.uk/ccrepo) Feb. 2017
              D. E. Woon, T. H. Dunning, Jr., J. Chem. Phys. 98, 1358 (1993)
      Sc-Zn : Obtained from the ccRepo (grant-hill.group.shef.ac.uk/ccrepo) Feb. 2017
              N. B. Balabanov, K. A. Peterson, J. Chem. Phys. 123, 064107 (2005)
              N. B. Balabanov, K. A. Peterson, J. Chem. Phys. 125, 074110 (2006)
      Ga-Kr : Obtained from the ccRepo (grant-hill.group.shef.ac.uk/ccrepo) Feb. 2017
              A. K. Wilson, D. E. Woon, K. A. Peterson, T. H. Dunning, Jr., J. Chem. Phys. 110, 7667 (1999)

================================================================================
                                        WARNINGS
                       Please study these warnings very carefully!
================================================================================


WARNING: Geometry Optimization
  ===> : Switching off AutoStart
         For restart on a previous wavefunction, please use MOREAD

INFO   : the flag for use of LIBINT has been found!

================================================================================
                                       INPUT FILE
================================================================================
NAME = x2-4-NO2-Ph-N2-BF4-v2-B3LYPG-aug-cc-pVDZ.orc
|  1> ! B3LYP/G aug-cc-pVDZ TightSCF TightOpt NumFreq Grid7
|  2> %geom MaxIter 2000 TolE 1e-8 TolRMSG 5e-7 TolMaxG 1e-6 Convergence tight end
|  3> %scf MaxIter 2000 end
|  4> %freq Temp 298.15, 323.15, 373.15, 423.15, 473.15, 523.15, 573.15, 623.15 end
|  5> * xyz 1 1
|  6> C           3.49400        -0.16940        -0.36970
|  7> C           3.75900         1.20440        -0.23890
|  8> C           5.02370         1.74950         0.05220
|  9> C           6.07610         0.86390         0.22430
| 10> C           5.82600        -0.50260         0.09240
| 11> C           4.57080        -1.03130        -0.20020
| 12> H           2.49030        -0.52510        -0.58030
| 13> H           5.16460         2.82050         0.14160
| 14> H           7.07680         1.20720         0.45500
| 15> H           4.44940        -2.10410        -0.28480
| 16> N           2.72090         2.10240        -0.43140
| 17> N           1.91830         2.85030        -0.61230
| 18> H          -2.39770         1.36330        -0.38540
| 19> C          -3.39790         0.96330        -0.24990
| 20> C          -3.64200        -0.41620        -0.38820
| 21> C          -4.48700         1.76360         0.07680
| 22> C          -4.89740        -1.01970        -0.21660
| 23> C          -5.75580         1.20750         0.26420
| 24> H          -4.34400         2.83160         0.19410
| 25> C          -5.93580        -0.16860         0.11400
| 26> H          -5.06690        -2.08400        -0.32740
| 27> N          -2.59400        -1.25150        -0.73790
| 28> N          -1.78010        -1.94280        -1.04770
| 29> N           6.96580        -1.44500         0.27480
| 30> O           6.71970        -2.63740         0.14780
| 31> O           8.05390        -0.94710         0.53520
| 32> F           1.14300         0.68750         1.06630
| 33> F          -1.03290        -0.09600         0.99510
| 34> F           0.44050        -0.62140        -0.68460
| 35> F          -0.33970         1.52950        -0.47030
| 36> B           0.05270         0.37250         0.25310
| 37> H          -6.91280        -0.57970         0.26000
| 38> N          -6.93210         2.04890         0.62260
| 39> O          -8.01600         1.50040         0.77270
| 40> O          -6.76710         3.25470         0.75260
| 41> 
| 42> *
| 43> %pal nprocs 42 end
| 44> 
| 45>                          ****END OF INPUT****
================================================================================

                       *****************************
                       * Geometry Optimization Run *
                       *****************************

Geometry optimization settings:
Update method            Update   .... BFGS
Choice of coordinates    CoordSys .... Z-matrix Internals
Initial Hessian          InHess   .... Almoef's Model

Convergence Tolerances:
Energy Change            TolE     ....  1.0000e-06 Eh
Max. Gradient            TolMAXG  ....  1.0000e-04 Eh/bohr
RMS Gradient             TolRMSG  ....  3.0000e-05 Eh/bohr
Max. Displacement        TolMAXD  ....  1.0000e-03 bohr
RMS Displacement         TolRMSD  ....  6.0000e-04 bohr

------------------------------------------------------------------------------
                        ORCA OPTIMIZATION COORDINATE SETUP
------------------------------------------------------------------------------

The optimization will be done in new redundant internal coordinates
Making redundant internal coordinates   ...  (new redundants) done
Evaluating the initial hessian          ...  (Almloef) done
Evaluating the coordinates              ...  done
Calculating the B-matrix                .... done
Calculating the G-matrix                .... done
Diagonalizing the G-matrix              .... done
Small eigenvalue found = 4.316e-03
Small eigenvalue found = 8.785e-03
Small eigenvalue found = 1.232e-02
The first mode is                       ....   85
The number of degrees of freedom        ....   99

    -----------------------------------------------------------------
                    Redundant Internal Coordinates


    -----------------------------------------------------------------
         Definition                    Initial Value    Approx d2E/dq
    -----------------------------------------------------------------
      1. B(C   1,C   0)                  1.4052         0.590808   
      2. B(C   2,C   1)                  1.4076         0.585677   
      3. B(C   3,C   2)                  1.3862         0.633663   
      4. B(C   4,C   3)                  1.3954         0.612420   
      5. B(C   5,C   0)                  1.3896         0.625623   
      6. B(C   5,C   4)                  1.3931         0.617772   
      7. B(H   6,C   0)                  1.0855         0.366116   
      8. B(H   7,C   2)                  1.0839         0.368231   
      9. B(H   8,C   3)                  1.0828         0.369738   
     10. B(H   9,C   5)                  1.0830         0.369539   
     11. B(N  10,C   1)                  1.3860         0.567794   
     12. B(N  11,N  10)                  1.1119         1.392379   
     13. B(C  13,H  12)                  1.0857         0.365824   
     14. B(C  14,C  13)                  1.4077         0.585377   
     15. B(C  15,C  13)                  1.3905         0.623764   
     16. B(C  16,C  14)                  1.4035         0.594663   
     17. B(C  17,C  15)                  1.3979         0.606849   
     18. B(H  18,C  15)                  1.0839         0.368265   
     19. B(C  19,C  16)                  1.3827         0.641708   
     20. B(C  19,C  17)                  1.3959         0.611340   
     21. B(H  20,C  16)                  1.0834         0.368947   
     22. B(N  21,C  14)                  1.3850         0.569899   
     23. B(N  22,N  21)                  1.1119         1.392243   
     24. B(N  23,C   4)                  1.4901         0.387348   
     25. B(O  24,N  23)                  1.2241         0.921798   
     26. B(O  25,N  23)                  1.2246         0.920192   
     27. B(F  26,N  10)                  2.5952         0.005564   
     28. B(F  26,H   6)                  2.4489         0.002036   
     29. B(F  27,N  21)                  2.6030         0.005406   
     30. B(F  27,H  12)                  2.4286         0.002193   
     31. B(F  28,N  22)                  2.6094         0.005280   
     32. B(F  28,H   6)                  2.0547         0.008660   
     33. B(F  29,H  12)                  2.0664         0.008295   
     34. B(F  29,N  11)                  2.6198         0.005082   
     35. B(B  30,F  29)                  1.4198         0.539738   
     36. B(B  30,F  28)                  1.4204         0.538641   
     37. B(B  30,F  27)                  1.3959         0.589311   
     38. B(B  30,F  26)                  1.3962         0.588776   
     39. B(H  31,C  19)                  1.0700         0.387588   
     40. B(N  32,C  17)                  1.4900         0.387560   
     41. B(O  33,N  32)                  1.2240         0.922200   
     42. B(O  34,N  32)                  1.2240         0.922398   
     43. A(C   1,C   0,H   6)          120.8498         0.351025   
     44. A(C   5,C   0,H   6)          122.4738         0.354442   
     45. A(C   1,C   0,C   5)          116.6719         0.431018   
     46. A(C   2,C   1,N  10)          116.7922         0.420184   
     47. A(C   0,C   1,C   2)          124.5608         0.425948   
     48. A(C   0,C   1,N  10)          118.6351         0.420838   
     49. A(C   1,C   2,H   7)          121.0971         0.350849   
     50. A(C   1,C   2,C   3)          117.4133         0.431331   
     51. A(C   3,C   2,H   7)          121.4892         0.355558   
     52. A(C   4,C   3,H   8)          119.7517         0.353753   
     53. A(C   2,C   3,C   4)          118.5435         0.434809   
     54. A(C   2,C   3,H   8)          121.7047         0.355804   
     55. A(C   3,C   4,N  23)          118.0762         0.395808   
     56. A(C   3,C   4,C   5)          123.5722         0.432826   
     57. A(C   5,C   4,N  23)          118.3516         0.396412   
     58. A(C   0,C   5,H   9)          121.1997         0.355002   
     59. A(C   4,C   5,H   9)          119.5626         0.354243   
     60. A(C   0,C   5,C   4)          119.2364         0.434490   
     61. A(C   1,N  10,F  26)           91.2606         0.201880   
     62. A(N  11,N  10,F  26)           91.2454         0.226129   
     63. A(N  10,N  11,F  29)          105.9155         0.223350   
     64. A(C  14,C  13,C  15)          116.8263         0.430074   
     65. A(H  12,C  13,C  15)          122.6057         0.354216   
     66. A(H  12,C  13,C  14)          120.5649         0.350430   
     67. A(C  16,C  14,N  21)          116.6394         0.421606   
     68. A(C  13,C  14,N  21)          118.9858         0.420423   
     69. A(C  13,C  14,C  16)          124.3660         0.426406   
     70. A(C  17,C  15,H  18)          119.8152         0.352968   
     71. A(C  13,C  15,C  17)          120.8941         0.432866   
     72. A(C  13,C  15,H  18)          119.2891         0.354615   
     73. A(C  14,C  16,C  19)          115.8686         0.433495   
     74. A(C  19,C  16,H  20)          120.7727         0.356438   
     75. A(C  14,C  16,H  20)          123.3584         0.351868   
     76. A(C  15,C  17,C  19)          119.6541         0.431304   
     77. A(C  19,C  17,N  32)          118.7352         0.395723   
     78. A(C  15,C  17,N  32)          121.6108         0.395212   
     79. A(C  16,C  19,C  17)          122.3893         0.435659   
     80. A(C  17,C  19,H  31)          118.8041         0.356487   
     81. A(C  16,C  19,H  31)          118.8066         0.359438   
     82. A(N  22,N  21,F  27)           91.2889         0.225237   
     83. A(C  14,N  21,F  27)           91.0301         0.201242   
     84. A(N  21,N  22,F  28)          105.6233         0.224511   
     85. A(O  24,N  23,O  25)          126.6358         0.488212   
     86. A(C   4,N  23,O  25)          116.6492         0.419857   
     87. A(C   4,N  23,O  24)          116.7150         0.419988   
     88. A(N  10,F  26,B  30)          105.1700         0.203442   
     89. A(N  21,F  27,B  30)          105.1595         0.202723   
     90. A(N  22,F  28,B  30)          102.3490         0.199838   
     91. A(N  11,F  29,B  30)          101.5514         0.198937   
     92. A(F  28,B  30,F  29)          108.0174         0.411159   
     93. A(F  27,B  30,F  29)          109.2313         0.417782   
     94. A(F  26,B  30,F  29)          109.1917         0.417714   
     95. A(F  27,B  30,F  28)          109.1715         0.417631   
     96. A(F  26,B  30,F  28)          109.2191         0.417563   
     97. A(F  26,B  30,F  27)          111.9281         0.424317   
     98. A(O  33,N  32,O  34)          123.2174         0.488468   
     99. A(C  17,N  32,O  34)          118.3882         0.420077   
    100. A(C  17,N  32,O  33)          118.3945         0.420061   
    101. D(N  10,C   1,C   0,C   5)    178.4852         0.024024   
    102. D(N  10,C   1,C   0,H   6)     -2.2671         0.024024   
    103. D(C   2,C   1,C   0,C   5)     -0.2195         0.024024   
    104. D(C   2,C   1,C   0,H   6)    179.0282         0.024024   
    105. D(C   3,C   2,C   1,C   0)     -0.1859         0.023588   
    106. D(H   7,C   2,C   1,N  10)      1.3328         0.023588   
    107. D(H   7,C   2,C   1,C   0)   -179.9408         0.023588   
    108. D(C   3,C   2,C   1,N  10)   -178.9123         0.023588   
    109. D(H   8,C   3,C   2,C   1)   -179.6974         0.027861   
    110. D(H   8,C   3,C   2,H   7)      0.0565         0.027861   
    111. D(C   4,C   3,C   2,C   1)      0.3846         0.027861   
    112. D(C   4,C   3,C   2,H   7)   -179.8615         0.027861   
    113. D(N  23,C   4,C   3,C   2)    179.7889         0.025915   
    114. D(C   5,C   4,C   3,C   2)     -0.1989         0.025915   
    115. D(C   5,C   4,C   3,H   8)    179.8814         0.025915   
    116. D(N  23,C   4,C   3,H   8)     -0.1307         0.025915   
    117. D(H   9,C   5,C   4,N  23)      0.2097         0.026397   
    118. D(C   0,C   5,C   4,N  23)    179.7930         0.026397   
    119. D(C   0,C   5,C   4,C   3)     -0.2191         0.026397   
    120. D(H   9,C   5,C   0,H   6)      0.7516         0.027114   
    121. D(H   9,C   5,C   0,C   1)    179.9860         0.027114   
    122. D(H   9,C   5,C   4,C   3)   -179.8025         0.026397   
    123. D(C   4,C   5,C   0,H   6)   -178.8247         0.027114   
    124. D(C   4,C   5,C   0,C   1)      0.4097         0.027114   
    125. D(F  26,N  10,C   1,C   0)     46.4562         0.025789   
    126. D(F  26,N  10,C   1,C   2)   -134.7387         0.025789   
    127. D(F  29,N  11,N  10,F  26)    -29.5755         0.214880   
    128. D(F  29,N  11,C   1,C   2)   -164.8798         0.001505   
    129. D(F  29,N  11,C   1,C   0)     17.1241         0.001505   
    130. D(C  16,C  14,C  13,C  15)     -0.0999         0.023563   
    131. D(C  16,C  14,C  13,H  12)    179.2730         0.023563   
    132. D(N  21,C  14,C  13,C  15)    178.7827         0.023563   
    133. D(N  21,C  14,C  13,H  12)     -1.8445         0.023563   
    134. D(H  18,C  15,C  13,C  14)    179.9399         0.026943   
    135. D(H  18,C  15,C  13,H  12)      0.5809         0.026943   
    136. D(C  17,C  15,C  13,C  14)      0.4068         0.026943   
    137. D(C  17,C  15,C  13,H  12)   -178.9522         0.026943   
    138. D(H  20,C  16,C  14,N  21)      1.0754         0.024355   
    139. D(H  20,C  16,C  14,C  13)    179.9818         0.024355   
    140. D(C  19,C  16,C  14,C  13)     -0.2241         0.024355   
    141. D(C  19,C  16,C  14,N  21)   -179.1306         0.024355   
    142. D(N  32,C  17,C  15,H  18)      0.0953         0.025419   
    143. D(N  32,C  17,C  15,C  13)    179.6259         0.025419   
    144. D(C  19,C  17,C  15,H  18)   -179.9164         0.025419   
    145. D(C  19,C  17,C  15,C  13)     -0.3858         0.025419   
    146. D(H  31,C  19,C  17,N  32)      0.0262         0.025818   
    147. D(H  31,C  19,C  17,C  15)   -179.9625         0.025818   
    148. D(C  16,C  19,C  17,N  32)   -179.9740         0.025818   
    149. D(C  16,C  19,C  17,C  15)      0.0373         0.025818   
    150. D(H  31,C  19,C  16,H  20)      0.0532         0.028621   
    151. D(H  31,C  19,C  16,C  14)   -179.7466         0.028621   
    152. D(C  17,C  19,C  16,H  20)   -179.9466         0.028621   
    153. D(C  17,C  19,C  16,C  14)      0.2536         0.028621   
    154. D(F  27,N  21,C  14,C  16)   -135.5418         0.025992   
    155. D(F  27,N  21,C  14,C  13)     45.4901         0.025992   
    156. D(F  28,N  22,N  21,F  27)    -29.9935         0.214830   
    157. D(F  28,N  22,C  14,C  16)   -166.0591         0.001505   
    158. D(F  28,N  22,C  14,C  13)     15.7230         0.001505   
    159. D(O  25,N  23,C   4,C   5)   -179.7731         0.011878   
    160. D(O  25,N  23,C   4,C   3)      0.2384         0.011878   
    161. D(O  24,N  23,C   4,C   5)      0.3009         0.011878   
    162. D(O  24,N  23,C   4,C   3)   -179.6876         0.011878   
    163. D(B  30,F  26,N  10,C   1)   -122.1766         0.001503   
    164. D(B  30,F  26,N  10,N  11)     57.9252         0.001503   
    165. D(B  30,F  27,N  21,N  22)     57.7730         0.001502   
    166. D(B  30,F  27,N  21,C  14)   -122.2912         0.001502   
    167. D(B  30,F  28,N  22,N  21)     21.3118         0.001502   
    168. D(B  30,F  29,N  11,N  10)     19.9878         0.001502   
    169. D(F  28,B  30,F  29,N  11)    -91.2141         0.022713   
    170. D(F  26,B  30,F  29,N  11)     27.4542         0.022713   
    171. D(F  29,B  30,F  28,N  22)    -92.4937         0.022617   
    172. D(F  27,B  30,F  28,N  22)     26.1780         0.022617   
    173. D(F  26,B  30,F  28,N  22)    148.8555         0.022617   
    174. D(F  29,B  30,F  27,N  21)     75.4237         0.027326   
    175. D(F  28,B  30,F  27,N  21)    -42.4879         0.027326   
    176. D(F  26,B  30,F  27,N  21)   -163.5290         0.027326   
    177. D(F  29,B  30,F  26,N  10)    -43.9443         0.027273   
    178. D(F  27,B  30,F  29,N  11)    150.1523         0.022713   
    179. D(F  28,B  30,F  26,N  10)     73.9719         0.027273   
    180. D(F  27,B  30,F  26,N  10)   -165.0146         0.027273   
    181. D(O  34,N  32,C  17,C  19)   -179.9946         0.011890   
    182. D(O  34,N  32,C  17,C  15)     -0.0062         0.011890   
    183. D(O  33,N  32,C  17,C  19)      0.0118         0.011890   
    184. D(O  33,N  32,C  17,C  15)   -179.9998         0.011890   
    -----------------------------------------------------------------

Number of atoms                         .... 35
Number of degrees of freedom            .... 184

         *************************************************************
         *                GEOMETRY OPTIMIZATION CYCLE   1            *
         *************************************************************
---------------------------------
CARTESIAN COORDINATES (ANGSTROEM)
---------------------------------
  C      3.494000   -0.169400   -0.369700
  C      3.759000    1.204400   -0.238900
  C      5.023700    1.749500    0.052200
  C      6.076100    0.863900    0.224300
  C      5.826000   -0.502600    0.092400
  C      4.570800   -1.031300   -0.200200
  H      2.490300   -0.525100   -0.580300
  H      5.164600    2.820500    0.141600
  H      7.076800    1.207200    0.455000
  H      4.449400   -2.104100   -0.284800
  N      2.720900    2.102400   -0.431400
  N      1.918300    2.850300   -0.612300
  H     -2.397700    1.363300   -0.385400
  C     -3.397900    0.963300   -0.249900
  C     -3.642000   -0.416200   -0.388200
  C     -4.487000    1.763600    0.076800
  C     -4.897400   -1.019700   -0.216600
  C     -5.755800    1.207500    0.264200
  H     -4.344000    2.831600    0.194100
  C     -5.935800   -0.168600    0.114000
  H     -5.066900   -2.084000   -0.327400
  N     -2.594000   -1.251500   -0.737900
  N     -1.780100   -1.942800   -1.047700
  N      6.965800   -1.445000    0.274800
  O      6.719700   -2.637400    0.147800
  O      8.053900   -0.947100    0.535200
  F      1.143000    0.687500    1.066300
  F     -1.032900   -0.096000    0.995100
  F      0.440500   -0.621400   -0.684600
  F     -0.339700    1.529500   -0.470300
  B      0.052700    0.372500    0.253100
  H     -6.912800   -0.579700    0.260000
  N     -6.932100    2.048900    0.622600
  O     -8.016000    1.500400    0.772700
  O     -6.767100    3.254700    0.752600

----------------------------
CARTESIAN COORDINATES (A.U.)
----------------------------
  NO LB      ZA    FRAG     MASS         X           Y           Z
   0 C     6.0000    0    12.011    6.602703   -0.320120   -0.698632
   1 C     6.0000    0    12.011    7.103481    2.275986   -0.451456
   2 C     6.0000    0    12.011    9.493417    3.306076    0.098644
   3 C     6.0000    0    12.011   11.482165    1.632534    0.423866
   4 C     6.0000    0    12.011   11.009544   -0.949776    0.174611
   5 C     6.0000    0    12.011    8.637560   -1.948875   -0.378323
   6 H     1.0000    0     1.008    4.705985   -0.992295   -1.096608
   7 H     1.0000    0     1.008    9.759680    5.329973    0.267585
   8 H     1.0000    0     1.008   13.373214    2.281277    0.859825
   9 H     1.0000    0     1.008    8.408147   -3.976173   -0.538194
  10 N     7.0000    0    14.007    5.141756    3.972960   -0.815228
  11 N     7.0000    0    14.007    3.625062    5.386286   -1.157079
  12 H     1.0000    0     1.008   -4.530996    2.576264   -0.728300
  13 C     6.0000    0    12.011   -6.421100    1.820373   -0.472243
  14 C     6.0000    0    12.011   -6.882383   -0.786504   -0.733592
  15 C     6.0000    0    12.011   -8.479201    3.332721    0.145131
  16 C     6.0000    0    12.011   -9.254745   -1.926954   -0.409315
  17 C     6.0000    0    12.011  -10.876886    2.281844    0.499266
  18 H     1.0000    0     1.008   -8.208970    5.350949    0.366796
  19 C     6.0000    0    12.011  -11.217036   -0.318608    0.215429
  20 H     1.0000    0     1.008   -9.575053   -3.938189   -0.618696
  21 N     7.0000    0    14.007   -4.901950   -2.364992   -1.394429
  22 N     7.0000    0    14.007   -3.363901   -3.671360   -1.979866
  23 N     7.0000    0    14.007   13.163454   -2.730654    0.519297
  24 O     8.0000    0    15.999   12.698393   -4.983964    0.279302
  25 O     8.0000    0    15.999   15.219665   -1.789760    1.011381
  26 F     9.0000    0    18.998    2.159957    1.299187    2.015015
  27 F     9.0000    0    18.998   -1.951898   -0.181414    1.880466
  28 F     9.0000    0    18.998    0.832424   -1.174276   -1.293707
  29 F     9.0000    0    18.998   -0.641940    2.890336   -0.888738
  30 B     5.0000    0    10.810    0.099589    0.703923    0.478290
  31 H     1.0000    0     1.008  -13.063299   -1.095474    0.491329
  32 N     7.0000    0    14.007  -13.099771    3.871860    1.176543
  33 O     8.0000    0    15.999  -15.148045    2.835345    1.460191
  34 O     8.0000    0    15.999  -12.787966    6.150492    1.422208

--------------------------------
INTERNAL COORDINATES (ANGSTROEM)
--------------------------------
 C      0   0   0     0.000000000000     0.00000000     0.00000000
 C      1   0   0     1.405225988943     0.00000000     0.00000000
 C      2   1   0     1.407600550582   124.56082837     0.00000000
 C      3   2   1     1.386164322871   117.41329751   359.81412511
 C      4   3   2     1.395446118630   118.54350785     0.38459873
 C      1   2   3     1.389640277194   116.67189210   359.78048544
 H      1   2   3     1.085489999954   120.84980243   179.02815236
 H      3   2   1     1.083921662299   121.09705861   180.05921910
 H      4   3   2     1.082810172653   121.70473391   180.30256653
 H      6   1   2     1.082956582694   121.19972620   179.98601915
 N      2   1   3     1.386041795907   118.63511388   178.70474490
 N     11   2   1     1.111865990127   177.49196257   224.12990344
 H     12  11   2     4.570613592287   117.04694609   154.86019502
 C     13  12  11     1.085707276387   174.86186850    45.38441373
 C     14  13  12     1.407740015060   120.56488288   291.92662669
 C     14  13  15     1.390450211263   122.60565358   179.33563044
 C     15  14  13     1.403455724275   124.36603241   179.27295931
 C     16  14  13     1.397933979128   120.89406130   181.04784102
 H     16  14  13     1.083896807819   119.28912351     0.58091382
 C     17  15  14     1.382729955559   115.86855473   359.77586106
 H     17  15  14     1.083393455768   123.35843881   179.98180514
 N     15  14  13     1.385034360585   118.98577653   358.15549958
 N     22  15  14     1.111892503797   177.68012241   223.90542470
 N      5   4   3     1.490144811755   118.07617125   179.78893279
 O     24   5   4     1.224137234954   116.71500092   180.31242310
 O     24   5   4     1.224611848710   116.64915855     0.23836857
 F      7   1   2     2.448858429963   102.47454567   311.34107256
 F     27   7   1     2.313759386799   109.20962519   186.86322705
 F      7   1   2     2.054709765393   161.37846410   334.42053536
 F     13  12  11     2.066444881917    14.38682897   349.59508403
 B     28  27   7     1.395916763278    34.03938147   310.95025015
 H     20  17  15     1.069975798792   118.80656768   180.25340785
 N     18  16  14     1.489995372476   121.61075113   179.62589729
 O     33  18  16     1.224018574205   118.39445135   180.00018122
 O     33  18  16     1.223960228112   118.38818199     0.00000000

---------------------------
INTERNAL COORDINATES (A.U.)
---------------------------
 C      0   0   0     0.000000000000     0.00000000     0.00000000
 C      1   0   0     2.655492275370     0.00000000     0.00000000
 C      2   1   0     2.659979546558   124.56082837     0.00000000
 C      3   2   1     2.619470946838   117.41329751   359.81412511
 C      4   3   2     2.637010998854   118.54350785     0.38459873
 C      1   2   3     2.626039548563   116.67189210   359.78048544
 H      1   2   3     2.051278821023   120.84980243   179.02815236
 H      3   2   1     2.048315092369   121.09705861   180.05921910
 H      4   3   2     2.046214681337   121.70473391   180.30256653
 H      6   1   2     2.046491356219   121.19972620   179.98601915
 N      2   1   3     2.619239404432   118.63511388   178.70474490
 N     11   2   1     2.101122218960   177.49196257   224.12990344
 H     12  11   2     8.637207953401   117.04694609   154.86019502
 C     13  12  11     2.051689413977   174.86186850    45.38441373
 C     14  13  12     2.660243096225   120.56488288   291.92662669
 C     14  13  15     2.627570102139   122.60565358   179.33563044
 C     15  14  13     2.652146959964   124.36603241   179.27295931
 C     16  14  13     2.641712373854   120.89406130   181.04784102
 H     16  14  13     2.048268124209   119.28912351     0.58091382
 C     17  15  14     2.612980933175   115.86855473   359.77586106
 H     17  15  14     2.047316926683   123.35843881   179.98180514
 N     15  14  13     2.617335627576   118.98577653   358.15549958
 N     22  15  14     2.101172322536   177.68012241   223.90542470
 N      5   4   3     2.815965594100   118.07617125   179.78893279
 O     24   5   4     2.313284124398   116.71500092   180.31242310
 O     24   5   4     2.314181014416   116.64915855     0.23836857
 F      7   1   2     4.627671773374   102.47454567   311.34107256
 F     27   7   1     4.372371580839   109.20962519   186.86322705
 F      7   1   2     3.882838741286   161.37846410   334.42053536
 F     13  12  11     3.905014897666    14.38682897   349.59508403
 B     28  27   7     2.637900388345    34.03938147   310.95025015
 H     20  17  15     2.021961229640   118.80656768   180.25340785
 N     18  16  14     2.815683194790   121.61075113   179.62589729
 O     33  18  16     2.313059888081   118.39445135   180.00018122
 O     33  18  16     2.312949629943   118.38818199     0.00000000

---------------------
BASIS SET INFORMATION
---------------------
There are 6 groups of distinct atoms

 Group   1 Type C   : 18s5p2d contracted to 4s3p2d pattern {8811/311/11}
 Group   2 Type H   : 5s2p contracted to 3s2p pattern {311/11}
 Group   3 Type N   : 18s5p2d contracted to 4s3p2d pattern {8811/311/11}
 Group   4 Type O   : 18s5p2d contracted to 4s3p2d pattern {8811/311/11}
 Group   5 Type F   : 18s5p2d contracted to 4s3p2d pattern {8811/311/11}
 Group   6 Type B   : 18s5p2d contracted to 4s3p2d pattern {8811/311/11}

Atom   0C    basis set group =>   1
Atom   1C    basis set group =>   1
Atom   2C    basis set group =>   1
Atom   3C    basis set group =>   1
Atom   4C    basis set group =>   1
Atom   5C    basis set group =>   1
Atom   6H    basis set group =>   2
Atom   7H    basis set group =>   2
Atom   8H    basis set group =>   2
Atom   9H    basis set group =>   2
Atom  10N    basis set group =>   3
Atom  11N    basis set group =>   3
Atom  12H    basis set group =>   2
Atom  13C    basis set group =>   1
Atom  14C    basis set group =>   1
Atom  15C    basis set group =>   1
Atom  16C    basis set group =>   1
Atom  17C    basis set group =>   1
Atom  18H    basis set group =>   2
Atom  19C    basis set group =>   1
Atom  20H    basis set group =>   2
Atom  21N    basis set group =>   3
Atom  22N    basis set group =>   3
Atom  23N    basis set group =>   3
Atom  24O    basis set group =>   4
Atom  25O    basis set group =>   4
Atom  26F    basis set group =>   5
Atom  27F    basis set group =>   5
Atom  28F    basis set group =>   5
Atom  29F    basis set group =>   5
Atom  30B    basis set group =>   6
Atom  31H    basis set group =>   2
Atom  32N    basis set group =>   3
Atom  33O    basis set group =>   4
Atom  34O    basis set group =>   4


           ************************************************************
           *        Program running with 42 parallel MPI-processes    *
           *            working without local directories             *
           ************************************************************
------------------------------------------------------------------------------
                           ORCA GTO INTEGRAL CALCULATION
------------------------------------------------------------------------------

                         BASIS SET STATISTICS AND STARTUP INFO

 # of primitive gaussian shells          ...  731
 # of primitive gaussian functions       ... 1249
 # of contracted shells                  ...  283
 # of contracted basis functions         ...  693
 Highest angular momentum                ...    2
 Maximum contraction depth               ...    8
 Integral package used                   ... LIBINT
 Integral threshhold            Thresh   ...  2.500e-11
 Primitive cut-off              TCut     ...  2.500e-12


------------------------------ INTEGRAL EVALUATION ----------------------------


 * One electron integrals 
 Pre-screening matrix                    ... done
 Shell pair data                         ... done (   0.013 sec)



           ************************************************************
           *        Program running with 42 parallel MPI-processes    *
           *            working without local directories             *
           ************************************************************
-------------------------------------------------------------------------------
                                 ORCA SCF
-------------------------------------------------------------------------------

------------
SCF SETTINGS
------------
Hamiltonian:
 Density Functional     Method          .... DFT(GTOs)
 Exchange Functional    Exchange        .... B88
   X-Alpha parameter    XAlpha          ....  0.666667
   Becke's b parameter  XBeta           ....  0.004200
 Correlation Functional Correlation     .... LYP
 LDA part of GGA corr.  LDAOpt          .... VWN-3
 Gradients option       PostSCFGGA      .... off
 Hybrid DFT is turned on
   Fraction HF Exchange ScalHFX         ....  0.200000
   Scaling of DF-GGA-X  ScalDFX         ....  0.720000
   Scaling of DF-GGA-C  ScalDFC         ....  0.810000
   Scaling of DF-LDA-C  ScalLDAC        ....  1.000000
   Perturbative correction              ....  0.000000
   Density functional embedding theory  .... OFF
   NL short-range parameter             ....  4.800000


General Settings:
 Integral files         IntName         .... x2-4-NO2-Ph-N2-BF4-v2-B3LYPG-aug-cc-pVDZ
 Hartree-Fock type      HFTyp           .... RHF
 Total Charge           Charge          ....    1
 Multiplicity           Mult            ....    1
 Number of Electrons    NEL             ....  194
 Basis Dimension        Dim             ....  693
 Nuclear Repulsion      ENuc            ....   2281.4852069848 Eh

Convergence Acceleration:
 DIIS                   CNVDIIS         .... on
   Start iteration      DIISMaxIt       ....    12
   Startup error        DIISStart       ....  0.200000
   # of expansion vecs  DIISMaxEq       ....     5
   Bias factor          DIISBfac        ....   1.050
   Max. coefficient     DIISMaxC        ....  10.000
 Newton-Raphson         CNVNR           .... off
 SOSCF                  CNVSOSCF        .... on
   Start iteration      SOSCFMaxIt      ....   150
   Startup grad/error   SOSCFStart      ....  0.003300
 Level Shifting         CNVShift        .... on
   Level shift para.    LevelShift      ....    0.2500
   Turn off err/grad.   ShiftErr        ....    0.0010
 Zerner damping         CNVZerner       .... off
 Static damping         CNVDamp         .... on
   Fraction old density DampFac         ....    0.7000
   Max. Damping (<1)    DampMax         ....    0.9800
   Min. Damping (>=0)   DampMin         ....    0.0000
   Turn off err/grad.   DampErr         ....    0.1000
 Fernandez-Rico         CNVRico         .... off

SCF Procedure:
 Maximum # iterations   MaxIter         ....  2000
 SCF integral mode      SCFMode         .... Direct
   Integral package                     .... LIBINT
 Reset frequency        DirectResetFreq ....    20
 Integral Threshold     Thresh          ....  2.500e-11 Eh
 Primitive CutOff       TCut            ....  2.500e-12 Eh

Convergence Tolerance:
 Convergence Check Mode ConvCheckMode   .... Total+1el-Energy
 Convergence forced     ConvForced      .... 0
 Energy Change          TolE            ....  1.000e-08 Eh
 1-El. energy change                    ....  1.000e-05 Eh
 Orbital Gradient       TolG            ....  1.000e-05
 Orbital Rotation angle TolX            ....  1.000e-05
 DIIS Error             TolErr          ....  5.000e-07


Diagonalization of the overlap matrix:
Smallest eigenvalue                        ... 1.464e-06
Time for diagonalization                   ...    0.187 sec
Threshold for overlap eigenvalues          ... 1.000e-08
Number of eigenvalues below threshold      ... 0
Time for construction of square roots      ...    1.629 sec
Total time needed                          ...    1.818 sec

-------------------
DFT GRID GENERATION
-------------------

General Integration Accuracy     IntAcc      ...  5.670
Radial Grid Type                 RadialGrid  ... Gauss-Chebyshev
Angular Grid (max. acc.)         AngularGrid ... Lebedev-770
Angular grid pruning method      GridPruning ... 3 (G Style)
Weight generation scheme         WeightScheme... Becke
Basis function cutoff            BFCut       ...    1.0000e-11
Integration weight cutoff        WCut        ...    1.0000e-14
Grids for H and He will be reduced by one unit

# of grid points (after initial pruning)     ... 820190 (   0.0 sec)
# of grid points (after weights+screening)   ... 730737 (   0.9 sec)
nearest neighbour list constructed           ...    0.0 sec
Grid point re-assignment to atoms done       ...    0.3 sec
Grid point division into batches done        ...   15.7 sec
Reduced shell lists constructed in   16.5 sec

Total number of grid points                  ...   730737
Total number of batches                      ...    11435
Average number of points per batch           ...       63
Average number of grid points per atom       ...    20878
Average number of shells per batch           ...   151.78 (53.63%)
Average number of basis functions per batch  ...   362.27 (52.28%)
Average number of large shells per batch     ...   114.64 (75.53%)
Average number of large basis fcns per batch ...   276.19 (76.24%)
Maximum spatial batch extension              ...   5.74,  3.61, 13.15 au
Average spatial batch extension              ...   0.02,  0.02,  0.02 au

Time for grid setup =   21.859 sec

------------------------------
INITIAL GUESS: MODEL POTENTIAL
------------------------------
Loading Hartree-Fock densities                     ... done
Calculating cut-offs                               ... done
Setting up the integral package                    ... done
Initializing the effective Hamiltonian             ... done
Starting the Coulomb interaction                   ... done (   0.2 sec)
Reading the grid                                   ... done
Mapping shells                                     ... done
Starting the XC term evaluation                    ... done (   1.3 sec)
  promolecular density results
     # of electrons  =    194.996087543
     EX              =   -180.261196585
     EC              =     -6.938764073
     EX+EC           =   -187.199960658
Transforming the Hamiltonian                       ... done (   0.1 sec)
Diagonalizing the Hamiltonian                      ... done (   0.2 sec)
Back transforming the eigenvectors                 ... done (   0.8 sec)
Now organizing SCF variables                       ... done
                      ------------------
                      INITIAL GUESS DONE (  24.7 sec)
                      ------------------
--------------
SCF ITERATIONS
--------------
ITER       Energy         Delta-E        Max-DP      RMS-DP      [F,P]     Damp
               ***  Starting incremental Fock matrix formation  ***
  0  -1514.9957003165   0.000000000000 1.95275527  0.01571940  0.2489065 0.7000
  1  -1515.2769856410  -0.281285324436 1.51550776  0.01129000  0.0796700 0.7000
                               ***Turning on DIIS***
  2  -1515.3693947151  -0.092409074114 3.62826368  0.02534110  0.0241865 0.0000
  3  -1515.5403572602  -0.170962545138 0.13093876  0.00219987  0.0409935 0.0000
  4  -1515.5684952429  -0.028137982647 0.12280007  0.00123634  0.0183056 0.0000
  5  -1515.5711409600  -0.002645717171 0.08056528  0.00076197  0.0060353 0.0000
                      *** Initiating the SOSCF procedure ***
                           *** Shutting down DIIS ***
                      *** Re-Reading the Fockian *** 
                      *** Removing any level shift *** 
ITER      Energy       Delta-E        Grad      Rot      Max-DP    RMS-DP
  6  -1515.57146346  -0.0003225025  0.000386  0.000386  0.096564  0.000710
               *** Restarting incremental Fock matrix formation ***
  7  -1515.57148290  -0.0000194366  0.000627  0.001428  0.050778  0.000452
  8  -1515.57143632   0.0000465824  0.001730  0.001014  0.021626  0.000155
  9  -1515.57149530  -0.0000589830  0.000120  0.000692  0.101739  0.000547
 10  -1515.57149445   0.0000008471  0.000200  0.000422  0.050646  0.000382
 11  -1515.57149573  -0.0000012784  0.000039  0.000146  0.157612  0.000756
 12  -1515.57149552   0.0000002138  0.000104  0.000123  0.012371  0.000127
 13  -1515.57149582  -0.0000002989  0.000016  0.000038  0.092177  0.000452
 14  -1515.57149576   0.0000000526  0.000032  0.000028  0.017217  0.000151
 15  -1515.57149581  -0.0000000468  0.000006  0.000007  0.184097  0.001002
 16  -1515.57149576   0.0000000538  0.000004  0.000008  0.038820  0.000237
 17  -1515.57149577  -0.0000000098  0.000003  0.000008  0.021881  0.000169
 18  -1515.57149578  -0.0000000170  0.000005  0.000010  0.018733  0.000175
 19  -1515.57149580  -0.0000000118  0.000005  0.000004  0.035988  0.000196
                  ***Gradient check signals convergence***
              ***Rediagonalizing the Fockian in SOSCF/NRSCF***

               *****************************************************
               *                     SUCCESS                       *
               *           SCF CONVERGED AFTER  20 CYCLES          *
               *****************************************************


----------------
TOTAL SCF ENERGY
----------------

Total Energy       :        -1515.57149578 Eh          -41240.79704 eV

Components:
Nuclear Repulsion  :         2281.48520698 Eh           62082.36869 eV
Electronic Energy  :        -3797.05670276 Eh         -103323.16573 eV
One Electron Energy:        -6588.87421506 Eh         -179292.38244 eV
Two Electron Energy:         2791.81751230 Eh           75969.21671 eV

Virial components:
Potential Energy   :        -3022.49151958 Eh          -82246.17556 eV
Kinetic Energy     :         1506.92002381 Eh           41005.37852 eV
Virial Ratio       :            2.00574116


DFT components:
N(Alpha)           :       96.999998493783 electrons
N(Beta)            :       96.999998493783 electrons
N(Total)           :      193.999996987566 electrons
E(X)               :     -144.247708862520 Eh       
E(C)               :       -8.833373087820 Eh       
E(XC)              :     -153.081081950340 Eh       
DFET-embed. en.    :        0.000000000000 Eh       

---------------
SCF CONVERGENCE
---------------

  Last Energy change         ...    1.8214e-08  Tolerance :   1.0000e-08
  Last MAX-Density change    ...    1.8634e-02  Tolerance :   1.0000e-07
  Last RMS-Density change    ...    1.7016e-04  Tolerance :   5.0000e-09
  Last Orbital Gradient      ...    2.3902e-06  Tolerance :   1.0000e-05
  Last Orbital Rotation      ...    2.9445e-06  Tolerance :   1.0000e-05

             **** THE GBW FILE WAS UPDATED (x2-4-NO2-Ph-N2-BF4-v2-B3LYPG-aug-cc-pVDZ.gbw) ****
             **** DENSITY FILE WAS UPDATED (x2-4-NO2-Ph-N2-BF4-v2-B3LYPG-aug-cc-pVDZ.scfp.tmp) ****
             **** ENERGY FILE WAS UPDATED (x2-4-NO2-Ph-N2-BF4-v2-B3LYPG-aug-cc-pVDZ.en.tmp) ****
----------------
ORBITAL ENERGIES
----------------

  NO   OCC          E(Eh)            E(eV) 
   0   2.0000     -24.775020      -674.1626 
   1   2.0000     -24.774251      -674.1416 
   2   2.0000     -24.772183      -674.0854 
   3   2.0000     -24.771851      -674.0763 
   4   2.0000     -19.308960      -525.4235 
   5   2.0000     -19.308911      -525.4222 
   6   2.0000     -19.305683      -525.3343 
   7   2.0000     -19.305650      -525.3334 
   8   2.0000     -14.697197      -399.9311 
   9   2.0000     -14.696956      -399.9245 
  10   2.0000     -14.691349      -399.7719 
  11   2.0000     -14.690602      -399.7516 
  12   2.0000     -14.660424      -398.9304 
  13   2.0000     -14.659244      -398.8983 
  14   2.0000     -10.450255      -284.3659 
  15   2.0000     -10.449017      -284.3322 
  16   2.0000     -10.414026      -283.3801 
  17   2.0000     -10.410044      -283.2717 
  18   2.0000     -10.390327      -282.7352 
  19   2.0000     -10.390085      -282.7286 
  20   2.0000     -10.381855      -282.5046 
  21   2.0000     -10.380646      -282.4717 
  22   2.0000     -10.370270      -282.1894 
  23   2.0000     -10.370158      -282.1864 
  24   2.0000     -10.368253      -282.1345 
  25   2.0000     -10.367309      -282.1088 
  26   2.0000      -6.974167      -189.7767 
  27   2.0000      -1.359728       -37.0001 
  28   2.0000      -1.359358       -36.9900 
  29   2.0000      -1.348717       -36.7005 
  30   2.0000      -1.347706       -36.6730 
  31   2.0000      -1.314675       -35.7741 
  32   2.0000      -1.262432       -34.3525 
  33   2.0000      -1.258800       -34.2537 
  34   2.0000      -1.258119       -34.2352 
  35   2.0000      -1.189729       -32.3742 
  36   2.0000      -1.182771       -32.1848 
  37   2.0000      -1.086088       -29.5540 
  38   2.0000      -1.084961       -29.5233 
  39   2.0000      -1.017705       -27.6932 
  40   2.0000      -1.016514       -27.6607 
  41   2.0000      -0.941170       -25.6105 
  42   2.0000      -0.941153       -25.6101 
  43   2.0000      -0.920941       -25.0601 
  44   2.0000      -0.917155       -24.9571 
  45   2.0000      -0.809016       -22.0144 
  46   2.0000      -0.807274       -21.9670 
  47   2.0000      -0.805834       -21.9279 
  48   2.0000      -0.803926       -21.8759 
  49   2.0000      -0.742767       -20.2117 
  50   2.0000      -0.739608       -20.1258 
  51   2.0000      -0.700104       -19.0508 
  52   2.0000      -0.698971       -19.0200 
  53   2.0000      -0.698125       -18.9970 
  54   2.0000      -0.698035       -18.9945 
  55   2.0000      -0.692766       -18.8511 
  56   2.0000      -0.689283       -18.7564 
  57   2.0000      -0.670805       -18.2535 
  58   2.0000      -0.665598       -18.1119 
  59   2.0000      -0.663401       -18.0521 
  60   2.0000      -0.662303       -18.0222 
  61   2.0000      -0.661914       -18.0116 
  62   2.0000      -0.644907       -17.5488 
  63   2.0000      -0.643544       -17.5117 
  64   2.0000      -0.627063       -17.0633 
  65   2.0000      -0.624688       -16.9986 
  66   2.0000      -0.623194       -16.9580 
  67   2.0000      -0.618944       -16.8423 
  68   2.0000      -0.611158       -16.6305 
  69   2.0000      -0.609645       -16.5893 
  70   2.0000      -0.608811       -16.5666 
  71   2.0000      -0.607890       -16.5415 
  72   2.0000      -0.601812       -16.3761 
  73   2.0000      -0.585398       -15.9295 
  74   2.0000      -0.583988       -15.8911 
  75   2.0000      -0.553323       -15.0567 
  76   2.0000      -0.552255       -15.0276 
  77   2.0000      -0.534962       -14.5570 
  78   2.0000      -0.531955       -14.4752 
  79   2.0000      -0.521755       -14.1977 
  80   2.0000      -0.516297       -14.0492 
  81   2.0000      -0.499557       -13.5936 
  82   2.0000      -0.499541       -13.5932 
  83   2.0000      -0.496833       -13.5195 
  84   2.0000      -0.474397       -12.9090 
  85   2.0000      -0.472060       -12.8454 
  86   2.0000      -0.468557       -12.7501 
  87   2.0000      -0.452867       -12.3231 
  88   2.0000      -0.450945       -12.2708 
  89   2.0000      -0.443406       -12.0657 
  90   2.0000      -0.440676       -11.9914 
  91   2.0000      -0.440348       -11.9825 
  92   2.0000      -0.437440       -11.9033 
  93   2.0000      -0.433315       -11.7911 
  94   2.0000      -0.431868       -11.7517 
  95   2.0000      -0.423784       -11.5317 
  96   2.0000      -0.417378       -11.3574 
  97   0.0000      -0.275884        -7.5072 
  98   0.0000      -0.273831        -7.4513 
  99   0.0000      -0.242797        -6.6068 
 100   0.0000      -0.242022        -6.5858 
 101   0.0000      -0.205051        -5.5797 
 102   0.0000      -0.204925        -5.5763 
 103   0.0000      -0.187496        -5.1020 
 104   0.0000      -0.187100        -5.0912 
 105   0.0000      -0.136159        -3.7051 
 106   0.0000      -0.135782        -3.6948 
 107   0.0000      -0.121437        -3.3045 
 108   0.0000      -0.117476        -3.1967 
 109   0.0000      -0.090203        -2.4545 
 110   0.0000      -0.089780        -2.4430 
 111   0.0000      -0.083985        -2.2853 
 112   0.0000      -0.083513        -2.2725 
 113   0.0000      -0.078686        -2.1412 
 114   0.0000      -0.072752        -1.9797 
 115   0.0000      -0.070495        -1.9183 
 116   0.0000      -0.063914        -1.7392 
 117   0.0000      -0.052851        -1.4382 
 118   0.0000      -0.051801        -1.4096 
 119   0.0000      -0.045371        -1.2346 
 120   0.0000      -0.041685        -1.1343 
 121   0.0000      -0.039834        -1.0839 
 122   0.0000      -0.036029        -0.9804 
 123   0.0000      -0.032793        -0.8923 
 124   0.0000      -0.029180        -0.7940 
 125   0.0000      -0.025079        -0.6824 
 126   0.0000      -0.023774        -0.6469 
 127   0.0000      -0.021312        -0.5799 
 128   0.0000      -0.017654        -0.4804 
 129   0.0000      -0.015620        -0.4250 
 130   0.0000      -0.013951        -0.3796 
 131   0.0000      -0.011980        -0.3260 
 132   0.0000      -0.009714        -0.2643 
 133   0.0000      -0.003523        -0.0959 
 134   0.0000      -0.001085        -0.0295 
 135   0.0000       0.002440         0.0664 
 136   0.0000       0.003231         0.0879 
 137   0.0000       0.005429         0.1477 
 138   0.0000       0.006251         0.1701 
 139   0.0000       0.008304         0.2260 
 140   0.0000       0.010312         0.2806 
 141   0.0000       0.013415         0.3650 
 142   0.0000       0.016728         0.4552 
 143   0.0000       0.018238         0.4963 
 144   0.0000       0.023794         0.6475 
 145   0.0000       0.025384         0.6907 
 146   0.0000       0.026025         0.7082 
 147   0.0000       0.027005         0.7348 
 148   0.0000       0.029597         0.8054 
 149   0.0000       0.031406         0.8546 
 150   0.0000       0.033221         0.9040 
 151   0.0000       0.035266         0.9596 
 152   0.0000       0.038085         1.0364 
 153   0.0000       0.040109         1.0914 
 154   0.0000       0.043926         1.1953 
 155   0.0000       0.044469         1.2101 
 156   0.0000       0.052605         1.4314 
 157   0.0000       0.054219         1.4754 
 158   0.0000       0.054950         1.4953 
 159   0.0000       0.056194         1.5291 
 160   0.0000       0.060281         1.6403 
 161   0.0000       0.062501         1.7007 
 162   0.0000       0.062915         1.7120 
 163   0.0000       0.070395         1.9155 
 164   0.0000       0.071587         1.9480 
 165   0.0000       0.073572         2.0020 
 166   0.0000       0.078310         2.1309 
 167   0.0000       0.079144         2.1536 
 168   0.0000       0.080394         2.1876 
 169   0.0000       0.086067         2.3420 
 170   0.0000       0.089982         2.4485 
 171   0.0000       0.093008         2.5309 
 172   0.0000       0.097208         2.6452 
 173   0.0000       0.098290         2.6746 
 174   0.0000       0.099293         2.7019 
 175   0.0000       0.103398         2.8136 
 176   0.0000       0.106943         2.9101 
 177   0.0000       0.108170         2.9434 
 178   0.0000       0.111532         3.0349 
 179   0.0000       0.119810         3.2602 
 180   0.0000       0.123029         3.3478 
 181   0.0000       0.123981         3.3737 
 182   0.0000       0.125133         3.4050 
 183   0.0000       0.125951         3.4273 
 184   0.0000       0.127457         3.4683 
 185   0.0000       0.129362         3.5201 
 186   0.0000       0.130665         3.5556 
 187   0.0000       0.132303         3.6001 
 188   0.0000       0.135216         3.6794 
 189   0.0000       0.137930         3.7533 
 190   0.0000       0.139372         3.7925 
 191   0.0000       0.142124         3.8674 
 192   0.0000       0.148274         4.0347 
 193   0.0000       0.151159         4.1133 
 194   0.0000       0.151808         4.1309 
 195   0.0000       0.153724         4.1830 
 196   0.0000       0.157225         4.2783 
 197   0.0000       0.158909         4.3241 
 198   0.0000       0.160056         4.3553 
 199   0.0000       0.166859         4.5405 
 200   0.0000       0.169994         4.6258 
 201   0.0000       0.173049         4.7089 
 202   0.0000       0.174163         4.7392 
 203   0.0000       0.177012         4.8167 
 204   0.0000       0.181782         4.9466 
 205   0.0000       0.182492         4.9659 
 206   0.0000       0.184981         5.0336 
 207   0.0000       0.185889         5.0583 
 208   0.0000       0.186358         5.0711 
 209   0.0000       0.189643         5.1604 
 210   0.0000       0.192062         5.2263 
 211   0.0000       0.193671         5.2701 
 212   0.0000       0.194576         5.2947 
 213   0.0000       0.195781         5.3275 
 214   0.0000       0.196627         5.3505 
 215   0.0000       0.197946         5.3864 
 216   0.0000       0.201165         5.4740 
 217   0.0000       0.203688         5.5426 
 218   0.0000       0.203853         5.5471 
 219   0.0000       0.204462         5.5637 
 220   0.0000       0.207777         5.6539 
 221   0.0000       0.211474         5.7545 
 222   0.0000       0.213222         5.8021 
 223   0.0000       0.217140         5.9087 
 224   0.0000       0.218475         5.9450 
 225   0.0000       0.220437         5.9984 
 226   0.0000       0.224786         6.1168 
 227   0.0000       0.227170         6.1816 
 228   0.0000       0.228423         6.2157 
 229   0.0000       0.230401         6.2695 
 230   0.0000       0.231442         6.2979 
 231   0.0000       0.241230         6.5642 
 232   0.0000       0.246930         6.7193 
 233   0.0000       0.248196         6.7538 
 234   0.0000       0.250351         6.8124 
 235   0.0000       0.254716         6.9312 
 236   0.0000       0.257504         7.0070 
 237   0.0000       0.262685         7.1480 
 238   0.0000       0.270934         7.3725 
 239   0.0000       0.272073         7.4035 
 240   0.0000       0.273424         7.4402 
 241   0.0000       0.274277         7.4635 
 242   0.0000       0.275201         7.4886 
 243   0.0000       0.277008         7.5378 
 244   0.0000       0.279130         7.5955 
 245   0.0000       0.284010         7.7283 
 246   0.0000       0.286447         7.7946 
 247   0.0000       0.291727         7.9383 
 248   0.0000       0.295455         8.0397 
 249   0.0000       0.296667         8.0727 
 250   0.0000       0.302813         8.2400 
 251   0.0000       0.304239         8.2788 
 252   0.0000       0.309489         8.4216 
 253   0.0000       0.311047         8.4640 
 254   0.0000       0.311570         8.4783 
 255   0.0000       0.316361         8.6086 
 256   0.0000       0.317167         8.6306 
 257   0.0000       0.320364         8.7175 
 258   0.0000       0.324307         8.8248 
 259   0.0000       0.325684         8.8623 
 260   0.0000       0.330608         8.9963 
 261   0.0000       0.332086         9.0365 
 262   0.0000       0.337304         9.1785 
 263   0.0000       0.342328         9.3152 
 264   0.0000       0.348109         9.4725 
 265   0.0000       0.353268         9.6129 
 266   0.0000       0.355155         9.6643 
 267   0.0000       0.356516         9.7013 
 268   0.0000       0.366085         9.9617 
 269   0.0000       0.374110        10.1800 
 270   0.0000       0.376292        10.2394 
 271   0.0000       0.380403        10.3513 
 272   0.0000       0.382977        10.4213 
 273   0.0000       0.384836        10.4719 
 274   0.0000       0.388965        10.5843 
 275   0.0000       0.392783        10.6882 
 276   0.0000       0.398410        10.8413 
 277   0.0000       0.403678        10.9846 
 278   0.0000       0.407464        11.0877 
 279   0.0000       0.410845        11.1797 
 280   0.0000       0.412483        11.2242 
 281   0.0000       0.415825        11.3152 
 282   0.0000       0.421903        11.4806 
 283   0.0000       0.423783        11.5317 
 284   0.0000       0.429381        11.6840 
 285   0.0000       0.431124        11.7315 
 286   0.0000       0.440729        11.9929 
 287   0.0000       0.442885        12.0515 
 288   0.0000       0.448074        12.1927 
 289   0.0000       0.452071        12.3015 
 290   0.0000       0.452270        12.3069 
 291   0.0000       0.459329        12.4990 
 292   0.0000       0.462645        12.5892 
 293   0.0000       0.464195        12.6314 
 294   0.0000       0.466345        12.6899 
 295   0.0000       0.466773        12.7015 
 296   0.0000       0.473734        12.8909 
 297   0.0000       0.482255        13.1228 
 298   0.0000       0.487613        13.2686 
 299   0.0000       0.489353        13.3160 
 300   0.0000       0.492963        13.4142 
 301   0.0000       0.496082        13.4991 
 302   0.0000       0.499255        13.5854 
 303   0.0000       0.500370        13.6158 
 304   0.0000       0.505035        13.7427 
 305   0.0000       0.506476        13.7819 
 306   0.0000       0.508716        13.8429 
 307   0.0000       0.511538        13.9197 
 308   0.0000       0.522023        14.2050 
 309   0.0000       0.524628        14.2759 
 310   0.0000       0.527820        14.3627 
 311   0.0000       0.532338        14.4857 
 312   0.0000       0.537748        14.6329 
 313   0.0000       0.541858        14.7447 
 314   0.0000       0.543936        14.8012 
 315   0.0000       0.548519        14.9260 
 316   0.0000       0.551347        15.0029 
 317   0.0000       0.552840        15.0435 
 318   0.0000       0.562576        15.3085 
 319   0.0000       0.563342        15.3293 
 320   0.0000       0.568261        15.4632 
 321   0.0000       0.574635        15.6366 
 322   0.0000       0.578140        15.7320 
 323   0.0000       0.578880        15.7521 
 324   0.0000       0.583904        15.8888 
 325   0.0000       0.586562        15.9612 
 326   0.0000       0.588141        16.0041 
 327   0.0000       0.589738        16.0476 
 328   0.0000       0.597261        16.2523 
 329   0.0000       0.598177        16.2772 
 330   0.0000       0.604825        16.4581 
 331   0.0000       0.605716        16.4824 
 332   0.0000       0.608317        16.5531 
 333   0.0000       0.613660        16.6985 
 334   0.0000       0.616199        16.7676 
 335   0.0000       0.617509        16.8033 
 336   0.0000       0.619150        16.8479 
 337   0.0000       0.624985        17.0067 
 338   0.0000       0.626082        17.0366 
 339   0.0000       0.626568        17.0498 
 340   0.0000       0.633997        17.2519 
 341   0.0000       0.639201        17.3936 
 342   0.0000       0.642561        17.4850 
 343   0.0000       0.649543        17.6750 
 344   0.0000       0.651595        17.7308 
 345   0.0000       0.656876        17.8745 
 346   0.0000       0.658236        17.9115 
 347   0.0000       0.668408        18.1883 
 348   0.0000       0.672747        18.3064 
 349   0.0000       0.675373        18.3778 
 350   0.0000       0.682004        18.5583 
 351   0.0000       0.688631        18.7386 
 352   0.0000       0.692745        18.8506 
 353   0.0000       0.698699        19.0126 
 354   0.0000       0.700093        19.0505 
 355   0.0000       0.712642        19.3920 
 356   0.0000       0.720555        19.6073 
 357   0.0000       0.721481        19.6325 
 358   0.0000       0.727601        19.7990 
 359   0.0000       0.731643        19.9090 
 360   0.0000       0.739014        20.1096 
 361   0.0000       0.743803        20.2399 
 362   0.0000       0.745689        20.2912 
 363   0.0000       0.755395        20.5553 
 364   0.0000       0.761419        20.7193 
 365   0.0000       0.766586        20.8599 
 366   0.0000       0.770995        20.9798 
 367   0.0000       0.774546        21.0765 
 368   0.0000       0.776455        21.1284 
 369   0.0000       0.781083        21.2544 
 370   0.0000       0.784207        21.3393 
 371   0.0000       0.790921        21.5220 
 372   0.0000       0.803328        21.8597 
 373   0.0000       0.807774        21.9806 
 374   0.0000       0.811124        22.0718 
 375   0.0000       0.814028        22.1508 
 376   0.0000       0.818859        22.2823 
 377   0.0000       0.828693        22.5499 
 378   0.0000       0.835038        22.7225 
 379   0.0000       0.840342        22.8669 
 380   0.0000       0.856216        23.2988 
 381   0.0000       0.859338        23.3838 
 382   0.0000       0.862947        23.4820 
 383   0.0000       0.879936        23.9443 
 384   0.0000       0.890461        24.2307 
 385   0.0000       0.898810        24.4579 
 386   0.0000       0.908168        24.7125 
 387   0.0000       0.912879        24.8407 
 388   0.0000       0.916665        24.9437 
 389   0.0000       0.922203        25.0944 
 390   0.0000       0.925981        25.1972 
 391   0.0000       0.936818        25.4921 
 392   0.0000       0.940159        25.5830 
 393   0.0000       0.948270        25.8037 
 394   0.0000       0.952696        25.9242 
 395   0.0000       0.955948        26.0127 
 396   0.0000       0.957539        26.0559 
 397   0.0000       0.960278        26.1305 
 398   0.0000       0.962029        26.1781 
 399   0.0000       0.965593        26.2751 
 400   0.0000       0.967360        26.3232 
 401   0.0000       0.974375        26.5141 
 402   0.0000       0.983910        26.7736 
 403   0.0000       0.996406        27.1136 
 404   0.0000       1.001470        27.2514 
 405   0.0000       1.009244        27.4629 
 406   0.0000       1.012536        27.5525 
 407   0.0000       1.016881        27.6707 
 408   0.0000       1.023462        27.8498 
 409   0.0000       1.025530        27.9061 
 410   0.0000       1.040920        28.3249 
 411   0.0000       1.055840        28.7309 
 412   0.0000       1.065866        29.0037 
 413   0.0000       1.069384        29.0994 
 414   0.0000       1.073591        29.2139 
 415   0.0000       1.075106        29.2551 
 416   0.0000       1.081536        29.4301 
 417   0.0000       1.090050        29.6618 
 418   0.0000       1.093745        29.7623 
 419   0.0000       1.102946        30.0127 
 420   0.0000       1.113617        30.3031 
 421   0.0000       1.117394        30.4058 
 422   0.0000       1.119060        30.4512 
 423   0.0000       1.126753        30.6605 
 424   0.0000       1.132309        30.8117 
 425   0.0000       1.143398        31.1134 
 426   0.0000       1.148058        31.2402 
 427   0.0000       1.150380        31.3034 
 428   0.0000       1.156612        31.4730 
 429   0.0000       1.162822        31.6420 
 430   0.0000       1.169714        31.8295 
 431   0.0000       1.177433        32.0396 
 432   0.0000       1.181174        32.1414 
 433   0.0000       1.184649        32.2359 
 434   0.0000       1.189429        32.3660 
 435   0.0000       1.194772        32.5114 
 436   0.0000       1.199081        32.6287 
 437   0.0000       1.203190        32.7405 
 438   0.0000       1.206939        32.8425 
 439   0.0000       1.209350        32.9081 
 440   0.0000       1.223394        33.2902 
 441   0.0000       1.227748        33.4087 
 442   0.0000       1.228532        33.4301 
 443   0.0000       1.232157        33.5287 
 444   0.0000       1.235804        33.6279 
 445   0.0000       1.240510        33.7560 
 446   0.0000       1.250998        34.0414 
 447   0.0000       1.253321        34.1046 
 448   0.0000       1.257359        34.2145 
 449   0.0000       1.261908        34.3383 
 450   0.0000       1.267636        34.4941 
 451   0.0000       1.268730        34.5239 
 452   0.0000       1.273188        34.6452 
 453   0.0000       1.274906        34.6920 
 454   0.0000       1.283186        34.9173 
 455   0.0000       1.287421        35.0325 
 456   0.0000       1.293507        35.1981 
 457   0.0000       1.296899        35.2904 
 458   0.0000       1.302690        35.4480 
 459   0.0000       1.305117        35.5140 
 460   0.0000       1.310495        35.6604 
 461   0.0000       1.318167        35.8691 
 462   0.0000       1.319410        35.9030 
 463   0.0000       1.328508        36.1506 
 464   0.0000       1.333738        36.2929 
 465   0.0000       1.348394        36.6917 
 466   0.0000       1.351251        36.7694 
 467   0.0000       1.357512        36.9398 
 468   0.0000       1.361054        37.0362 
 469   0.0000       1.371923        37.3319 
 470   0.0000       1.373784        37.3826 
 471   0.0000       1.383323        37.6421 
 472   0.0000       1.388161        37.7738 
 473   0.0000       1.392855        37.9015 
 474   0.0000       1.395336        37.9690 
 475   0.0000       1.403014        38.1779 
 476   0.0000       1.405660        38.2499 
 477   0.0000       1.407360        38.2962 
 478   0.0000       1.412990        38.4494 
 479   0.0000       1.415848        38.5272 
 480   0.0000       1.429919        38.9101 
 481   0.0000       1.434095        39.0237 
 482   0.0000       1.440290        39.1923 
 483   0.0000       1.443870        39.2897 
 484   0.0000       1.453847        39.5612 
 485   0.0000       1.464086        39.8398 
 486   0.0000       1.468085        39.9486 
 487   0.0000       1.469931        39.9989 
 488   0.0000       1.476106        40.1669 
 489   0.0000       1.484907        40.4064 
 490   0.0000       1.489192        40.5230 
 491   0.0000       1.506021        40.9809 
 492   0.0000       1.507787        41.0290 
 493   0.0000       1.512935        41.1690 
 494   0.0000       1.516962        41.2786 
 495   0.0000       1.520886        41.3854 
 496   0.0000       1.523811        41.4650 
 497   0.0000       1.531787        41.6820 
 498   0.0000       1.541293        41.9407 
 499   0.0000       1.547808        42.1180 
 500   0.0000       1.560553        42.4648 
 501   0.0000       1.561246        42.4837 
 502   0.0000       1.565791        42.6073 
 503   0.0000       1.569052        42.6961 
 504   0.0000       1.575856        42.8812 
 505   0.0000       1.576519        42.8993 
 506   0.0000       1.584459        43.1153 
 507   0.0000       1.593632        43.3649 
 508   0.0000       1.600808        43.5602 
 509   0.0000       1.603847        43.6429 
 510   0.0000       1.607190        43.7339 
 511   0.0000       1.611782        43.8588 
 512   0.0000       1.619354        44.0649 
 513   0.0000       1.624098        44.1940 
 514   0.0000       1.632711        44.4283 
 515   0.0000       1.653423        44.9919 
 516   0.0000       1.658331        45.1255 
 517   0.0000       1.661310        45.2065 
 518   0.0000       1.665352        45.3165 
 519   0.0000       1.674758        45.5725 
 520   0.0000       1.687737        45.9257 
 521   0.0000       1.691700        46.0335 
 522   0.0000       1.697445        46.1898 
 523   0.0000       1.701028        46.2873 
 524   0.0000       1.711415        46.5700 
 525   0.0000       1.720544        46.8184 
 526   0.0000       1.727937        47.0196 
 527   0.0000       1.743629        47.4466 
 528   0.0000       1.749452        47.6050 
 529   0.0000       1.751015        47.6476 
 530   0.0000       1.760318        47.9007 
 531   0.0000       1.770959        48.1903 
 532   0.0000       1.773500        48.2594 
 533   0.0000       1.786497        48.6130 
 534   0.0000       1.793408        48.8011 
 535   0.0000       1.798842        48.9490 
 536   0.0000       1.801932        49.0331 
 537   0.0000       1.809550        49.2404 
 538   0.0000       1.812105        49.3099 
 539   0.0000       1.818052        49.4717 
 540   0.0000       1.831975        49.8506 
 541   0.0000       1.841717        50.1157 
 542   0.0000       1.846358        50.2420 
 543   0.0000       1.867483        50.8168 
 544   0.0000       1.877802        51.0976 
 545   0.0000       1.888451        51.3874 
 546   0.0000       1.892725        51.5037 
 547   0.0000       1.897144        51.6239 
 548   0.0000       1.911657        52.0188 
 549   0.0000       1.917498        52.1778 
 550   0.0000       1.919895        52.2430 
 551   0.0000       1.926327        52.4180 
 552   0.0000       1.928740        52.4837 
 553   0.0000       1.934977        52.6534 
 554   0.0000       1.937234        52.7148 
 555   0.0000       1.957235        53.2591 
 556   0.0000       1.963594        53.4321 
 557   0.0000       1.967231        53.5311 
 558   0.0000       1.970558        53.6216 
 559   0.0000       1.970989        53.6333 
 560   0.0000       1.982717        53.9525 
 561   0.0000       1.988642        54.1137 
 562   0.0000       1.994947        54.2853 
 563   0.0000       2.012566        54.7647 
 564   0.0000       2.019730        54.9597 
 565   0.0000       2.029184        55.2169 
 566   0.0000       2.035446        55.3873 
 567   0.0000       2.051026        55.8112 
 568   0.0000       2.055912        55.9442 
 569   0.0000       2.064540        56.1790 
 570   0.0000       2.070516        56.3416 
 571   0.0000       2.080541        56.6144 
 572   0.0000       2.092518        56.9403 
 573   0.0000       2.117890        57.6307 
 574   0.0000       2.120034        57.6890 
 575   0.0000       2.131881        58.0114 
 576   0.0000       2.141262        58.2667 
 577   0.0000       2.148968        58.4764 
 578   0.0000       2.155319        58.6492 
 579   0.0000       2.161839        58.8266 
 580   0.0000       2.164904        58.9100 
 581   0.0000       2.171029        59.0767 
 582   0.0000       2.178801        59.2882 
 583   0.0000       2.181067        59.3498 
 584   0.0000       2.189592        59.5818 
 585   0.0000       2.201169        59.8968 
 586   0.0000       2.219185        60.3871 
 587   0.0000       2.226278        60.5801 
 588   0.0000       2.230955        60.7074 
 589   0.0000       2.245357        61.0993 
 590   0.0000       2.248784        61.1925 
 591   0.0000       2.257125        61.4195 
 592   0.0000       2.260977        61.5243 
 593   0.0000       2.275468        61.9186 
 594   0.0000       2.282293        62.1044 
 595   0.0000       2.290774        62.3351 
 596   0.0000       2.301960        62.6395 
 597   0.0000       2.332000        63.4569 
 598   0.0000       2.341092        63.7043 
 599   0.0000       2.372039        64.5465 
 600   0.0000       2.375657        64.6449 
 601   0.0000       2.380479        64.7761 
 602   0.0000       2.403371        65.3991 
 603   0.0000       2.416727        65.7625 
 604   0.0000       2.433475        66.2182 
 605   0.0000       2.435943        66.2854 
 606   0.0000       2.439229        66.3748 
 607   0.0000       2.459237        66.9192 
 608   0.0000       2.475656        67.3660 
 609   0.0000       2.482236        67.5451 
 610   0.0000       2.500269        68.0358 
 611   0.0000       2.521609        68.6165 
 612   0.0000       2.534591        68.9697 
 613   0.0000       2.572620        70.0045 
 614   0.0000       2.579815        70.2003 
 615   0.0000       2.618216        71.2453 
 616   0.0000       2.646946        72.0271 
 617   0.0000       2.695990        73.3616 
 618   0.0000       2.701773        73.5190 
 619   0.0000       2.726950        74.2041 
 620   0.0000       2.732197        74.3469 
 621   0.0000       2.748847        74.7999 
 622   0.0000       2.753440        74.9249 
 623   0.0000       2.795292        76.0638 
 624   0.0000       2.808483        76.4227 
 625   0.0000       2.814805        76.5947 
 626   0.0000       2.827137        76.9303 
 627   0.0000       2.858756        77.7907 
 628   0.0000       2.870222        78.1027 
 629   0.0000       2.898171        78.8632 
 630   0.0000       2.900993        78.9400 
 631   0.0000       3.005973        81.7967 
 632   0.0000       3.014145        82.0191 
 633   0.0000       3.027111        82.3719 
 634   0.0000       3.075793        83.6966 
 635   0.0000       3.090354        84.0928 
 636   0.0000       3.151400        85.7539 
 637   0.0000       3.159385        85.9712 
 638   0.0000       3.168462        86.2182 
 639   0.0000       3.170489        86.2734 
 640   0.0000       3.172168        86.3191 
 641   0.0000       3.175433        86.4079 
 642   0.0000       3.176495        86.4368 
 643   0.0000       3.180164        86.5367 
 644   0.0000       3.192030        86.8596 
 645   0.0000       3.224124        87.7329 
 646   0.0000       3.230181        87.8977 
 647   0.0000       3.239349        88.1472 
 648   0.0000       3.247374        88.3655 
 649   0.0000       3.264695        88.8369 
 650   0.0000       3.271169        89.0130 
 651   0.0000       3.274852        89.1133 
 652   0.0000       3.284380        89.3725 
 653   0.0000       3.288987        89.4979 
 654   0.0000       3.311363        90.1068 
 655   0.0000       3.319930        90.3399 
 656   0.0000       3.360618        91.4471 
 657   0.0000       3.370329        91.7113 
 658   0.0000       3.406193        92.6872 
 659   0.0000       3.432772        93.4105 
 660   0.0000       3.486964        94.8851 
 661   0.0000       3.492431        95.0339 
 662   0.0000       3.492695        95.0411 
 663   0.0000       3.498400        95.1963 
 664   0.0000       3.517446        95.7146 
 665   0.0000       3.684198       100.2521 
 666   0.0000       3.686880       100.3251 
 667   0.0000       3.713804       101.0577 
 668   0.0000       3.722114       101.2839 
 669   0.0000       3.954593       107.6099 
 670   0.0000       4.008030       109.0641 
 671   0.0000       4.403969       119.8381 
 672   0.0000       4.409905       119.9996 
 673   0.0000       4.432338       120.6100 
 674   0.0000       4.469776       121.6288 
 675   0.0000       4.480585       121.9229 
 676   0.0000       4.482666       121.9795 
 677   0.0000       4.518397       122.9518 
 678   0.0000       4.534462       123.3890 
 679   0.0000       4.559970       124.0831 
 680   0.0000       4.590838       124.9231 
 681   0.0000       4.593840       125.0048 
 682   0.0000       4.594442       125.0211 
 683   0.0000       4.638432       126.2182 
 684   0.0000       4.651154       126.5643 
 685   0.0000       4.688011       127.5673 
 686   0.0000       4.707381       128.0944 
 687   0.0000       4.732641       128.7817 
 688   0.0000       4.748520       129.2138 
 689   0.0000       4.784566       130.1947 
 690   0.0000       4.825422       131.3064 
 691   0.0000       4.831275       131.4657 
 692   0.0000       4.854419       132.0955 

                    ********************************
                    * MULLIKEN POPULATION ANALYSIS *
                    ********************************

-----------------------
MULLIKEN ATOMIC CHARGES
-----------------------
   0 C :    1.410641
   1 C :    0.610427
   2 C :    0.900827
   3 C :    1.086356
   4 C :    0.507667
   5 C :    0.576582
   6 H :   -0.935081
   7 H :   -0.848250
   8 H :   -0.832406
   9 H :   -0.854676
  10 N :    0.448947
  11 N :   -0.604512
  12 H :   -0.958459
  13 C :    1.279990
  14 C :    0.642830
  15 C :    0.830857
  16 C :    0.533238
  17 C :    0.378013
  18 H :   -0.850756
  19 C :    1.540396
  20 H :   -0.849872
  21 N :    0.447855
  22 N :   -0.606613
  23 N :    0.713504
  24 O :   -0.620728
  25 O :   -0.632861
  26 F :   -0.663017
  27 F :   -0.658069
  28 F :   -0.694761
  29 F :   -0.696680
  30 B :    1.861687
  31 H :   -0.896021
  32 N :    0.691599
  33 O :   -0.632701
  34 O :   -0.625950
Sum of atomic charges:    1.0000000

--------------------------------
MULLIKEN REDUCED ORBITAL CHARGES
--------------------------------
  0 C s       :     3.120340  s :     3.120340
      pz      :     0.793358  p :     1.665542
      px      :     0.339937
[...]
Total thermal energy                  -1515.29522731 Eh


Summary of corrections to the electronic energy:
(perhaps to be used in another calculation)
Total thermal correction                  0.06461047 Eh      40.54 kcal/mol
Non-thermal (ZPE) correction              0.21723655 Eh     136.32 kcal/mol
-----------------------------------------------------------------------
Total correction                          0.28184701 Eh     176.86 kcal/mol


--------
ENTHALPY
--------

The enthalpy is H = U + kB*T
                kB is Boltzmann's constant
Total free energy                 ...  -1515.29522731 Eh 
Thermal Enthalpy correction       ...      0.00165676 Eh       1.04 kcal/mol
-----------------------------------------------------------------------
Total Enthalpy                    ...  -1515.29357055 Eh


Note: Rotational entropy computed according to Herzberg 
Infrared and Raman Spectra, Chapter V,1, Van Nostrand Reinhold, 1945 
Point Group:  C1, Symmetry Number:   1  
Rotational constants in cm-1:     0.010386     0.002101     0.002031 

Vibrational entropy computed according to the QRRHO of S. Grimme
Chem.Eur.J. 2012 18 9955


-------
ENTROPY
-------

The entropy contributions are T*S = T*(S(el)+S(vib)+S(rot)+S(trans))
     S(el)   - electronic entropy
     S(vib)  - vibrational entropy
     S(rot)  - rotational entropy
     S(trans)- translational entropy
The entropies will be listed as mutliplied by the temperature to get
units of energy

Electronic entropy                ...      0.00000000 Eh      0.00 kcal/mol
Vibrational entropy               ...      0.11601019 Eh     72.80 kcal/mol
Rotational entropy                ...      0.03211139 Eh     20.15 kcal/mol
Translational entropy             ...      0.03880446 Eh     24.35 kcal/mol
-----------------------------------------------------------------------
Final entropy term                ...      0.18692603 Eh    117.30 kcal/mol


-------------------
GIBBS FREE ENTHALPY
-------------------

The Gibbs free enthalpy is G = H - T*S

Total enthalpy                    ...  -1515.29357055 Eh 
Total entropy correction          ...     -0.18692603 Eh   -117.30 kcal/mol
-----------------------------------------------------------------------
Final Gibbs free enthalpy         ...  -1515.48049659 Eh

For completeness - the Gibbs free enthalpy minus the electronic energy
G-E(el)                           ...      0.09657774 Eh     60.60 kcal/mol


The first frequency considered to be a vibration is 7
The total number of vibrations considered is 98


--------------------------
THERMOCHEMISTRY AT 573.15K
--------------------------

Temperature         ... 573.15 K
Pressure            ... 1.00 atm
Total Mass          ... 387.04 AMU

Throughout the following assumptions are being made:
  (1) The electronic state is orbitally nondegenerate
  (2) There are no thermally accessible electronically excited states
  (3) Hindered rotations indicated by low frequency modes are not
      treated as such but are treated as vibrations and this may
      cause some error
  (4) All equations used are the standard statistical mechanics
      equations for an ideal gas
  (5) All vibrations are strictly harmonic

freq.       9.04  E(vib)   ...       1.13 
freq.      14.45  E(vib)   ...       1.12 
freq.      21.02  E(vib)   ...       1.11 
freq.      21.40  E(vib)   ...       1.11 
freq.      39.51  E(vib)   ...       1.08 
freq.      46.05  E(vib)   ...       1.07 
freq.      50.24  E(vib)   ...       1.07 
freq.      65.21  E(vib)   ...       1.05 
freq.      69.97  E(vib)   ...       1.04 
freq.      74.77  E(vib)   ...       1.04 
freq.      81.35  E(vib)   ...       1.03 
freq.      85.65  E(vib)   ...       1.02 
freq.      90.50  E(vib)   ...       1.01 
freq.      93.35  E(vib)   ...       1.01 
freq.     109.08  E(vib)   ...       0.99 
freq.     145.03  E(vib)   ...       0.94 
freq.     155.57  E(vib)   ...       0.93 
freq.     223.66  E(vib)   ...       0.85 
freq.     223.69  E(vib)   ...       0.85 
freq.     257.28  E(vib)   ...       0.81 
freq.     258.23  E(vib)   ...       0.81 
freq.     327.30  E(vib)   ...       0.73 
freq.     328.58  E(vib)   ...       0.73 
freq.     328.74  E(vib)   ...       0.73 
freq.     346.49  E(vib)   ...       0.71 
freq.     408.59  E(vib)   ...       0.65 
freq.     409.26  E(vib)   ...       0.65 
freq.     432.13  E(vib)   ...       0.63 
freq.     432.81  E(vib)   ...       0.63 
freq.     485.50  E(vib)   ...       0.58 
freq.     486.18  E(vib)   ...       0.58 
freq.     498.11  E(vib)   ...       0.57 
freq.     498.45  E(vib)   ...       0.57 
freq.     500.88  E(vib)   ...       0.57 
freq.     548.15  E(vib)   ...       0.53 
freq.     548.69  E(vib)   ...       0.53 
freq.     550.68  E(vib)   ...       0.53 
freq.     551.18  E(vib)   ...       0.53 
freq.     570.18  E(vib)   ...       0.51 
freq.     570.40  E(vib)   ...       0.51 
freq.     641.92  E(vib)   ...       0.46 
freq.     643.10  E(vib)   ...       0.46 
freq.     673.84  E(vib)   ...       0.44 
freq.     675.00  E(vib)   ...       0.43 
freq.     735.14  E(vib)   ...       0.39 
freq.     766.94  E(vib)   ...       0.37 
freq.     767.00  E(vib)   ...       0.37 
freq.     772.33  E(vib)   ...       0.37 
freq.     772.90  E(vib)   ...       0.37 
freq.     842.22  E(vib)   ...       0.33 
freq.     842.70  E(vib)   ...       0.33 
freq.     863.86  E(vib)   ...       0.32 
freq.     863.99  E(vib)   ...       0.32 
freq.     898.53  E(vib)   ...       0.30 
freq.     899.89  E(vib)   ...       0.30 
freq.    1003.33  E(vib)   ...       0.25 
freq.    1003.94  E(vib)   ...       0.25 
freq.    1007.46  E(vib)   ...       0.25 
freq.    1016.22  E(vib)   ...       0.25 
freq.    1021.06  E(vib)   ...       0.24 
freq.    1021.87  E(vib)   ...       0.24 
freq.    1031.12  E(vib)   ...       0.24 
freq.    1057.56  E(vib)   ...       0.23 
freq.    1094.84  E(vib)   ...       0.21 
freq.    1106.48  E(vib)   ...       0.21 
freq.    1108.89  E(vib)   ...       0.21 
freq.    1119.59  E(vib)   ...       0.20 
freq.    1120.52  E(vib)   ...       0.20 
freq.    1128.92  E(vib)   ...       0.20 
freq.    1134.56  E(vib)   ...       0.20 
freq.    1197.05  E(vib)   ...       0.18 
freq.    1200.11  E(vib)   ...       0.18 
freq.    1312.54  E(vib)   ...       0.14 
freq.    1315.77  E(vib)   ...       0.14 
freq.    1374.14  E(vib)   ...       0.13 
freq.    1374.21  E(vib)   ...       0.13 
freq.    1379.26  E(vib)   ...       0.13 
freq.    1379.75  E(vib)   ...       0.13 
freq.    1437.73  E(vib)   ...       0.11 
freq.    1439.38  E(vib)   ...       0.11 
freq.    1482.63  E(vib)   ...       0.11 
freq.    1484.57  E(vib)   ...       0.10 
freq.    1604.55  E(vib)   ...       0.08 
freq.    1605.32  E(vib)   ...       0.08 
freq.    1616.31  E(vib)   ...       0.08 
freq.    1616.99  E(vib)   ...       0.08 
freq.    1653.47  E(vib)   ...       0.08 
freq.    1654.17  E(vib)   ...       0.08 
freq.    2382.54  E(vib)   ...       0.02 
freq.    2382.62  E(vib)   ...       0.02 
freq.    3215.88  E(vib)   ...       0.00 
freq.    3218.69  E(vib)   ...       0.00 
freq.    3233.04  E(vib)   ...       0.00 
freq.    3233.50  E(vib)   ...       0.00 
freq.    3235.59  E(vib)   ...       0.00 
freq.    3237.06  E(vib)   ...       0.00 
freq.    3246.04  E(vib)   ...       0.00 
freq.    3249.84  E(vib)   ...       0.00 

------------
INNER ENERGY
------------

The inner energy is: U= E(el) + E(ZPE) + E(vib) + E(rot) + E(trans)
    E(el)   - is the total energy from the electronic structure calculation
              = E(kin-el) + E(nuc-el) + E(el-el) + E(nuc-nuc)
    E(ZPE)  - the the zero temperature vibrational energy from the frequency calculation
    E(vib)  - the the finite temperature correction to E(ZPE) due to population
              of excited vibrational states
    E(rot)  - is the rotational thermal energy
    E(trans)- is the translational thermal energy

Summary of contributions to the inner energy U:
Electronic energy                ...  -1515.57707433 Eh
Zero point energy                ...      0.21723655 Eh     136.32 kcal/mol
Thermal vibrational correction   ...      0.06958330 Eh      43.66 kcal/mol
Thermal rotational correction    ...      0.00272258 Eh       1.71 kcal/mol
Thermal translational correction ...      0.00272258 Eh       1.71 kcal/mol
-----------------------------------------------------------------------
Total thermal energy                  -1515.28480933 Eh


Summary of corrections to the electronic energy:
(perhaps to be used in another calculation)
Total thermal correction                  0.07502845 Eh      47.08 kcal/mol
Non-thermal (ZPE) correction              0.21723655 Eh     136.32 kcal/mol
-----------------------------------------------------------------------
Total correction                          0.29226499 Eh     183.40 kcal/mol


--------
ENTHALPY
--------

The enthalpy is H = U + kB*T
                kB is Boltzmann's constant
Total free energy                 ...  -1515.28480933 Eh 
Thermal Enthalpy correction       ...      0.00181510 Eh       1.14 kcal/mol
-----------------------------------------------------------------------
Total Enthalpy                    ...  -1515.28299423 Eh


Note: Rotational entropy computed according to Herzberg 
Infrared and Raman Spectra, Chapter V,1, Van Nostrand Reinhold, 1945 
Point Group:  C1, Symmetry Number:   1  
Rotational constants in cm-1:     0.010386     0.002101     0.002031 

Vibrational entropy computed according to the QRRHO of S. Grimme
Chem.Eur.J. 2012 18 9955


-------
ENTROPY
-------

The entropy contributions are T*S = T*(S(el)+S(vib)+S(rot)+S(trans))
     S(el)   - electronic entropy
     S(vib)  - vibrational entropy
     S(rot)  - rotational entropy
     S(trans)- translational entropy
The entropies will be listed as mutliplied by the temperature to get
units of energy

Electronic entropy                ...      0.00000000 Eh      0.00 kcal/mol
Vibrational entropy               ...      0.13644956 Eh     85.62 kcal/mol
Rotational entropy                ...      0.03542894 Eh     22.23 kcal/mol
Translational entropy             ...      0.04292738 Eh     26.94 kcal/mol
-----------------------------------------------------------------------
Final entropy term                ...      0.21480588 Eh    134.79 kcal/mol


-------------------
GIBBS FREE ENTHALPY
-------------------

The Gibbs free enthalpy is G = H - T*S

Total enthalpy                    ...  -1515.28299423 Eh 
Total entropy correction          ...     -0.21480588 Eh   -134.79 kcal/mol
-----------------------------------------------------------------------
Final Gibbs free enthalpy         ...  -1515.49780011 Eh

For completeness - the Gibbs free enthalpy minus the electronic energy
G-E(el)                           ...      0.07927422 Eh     49.75 kcal/mol


The first frequency considered to be a vibration is 7
The total number of vibrations considered is 98


--------------------------
THERMOCHEMISTRY AT 623.15K
--------------------------

Temperature         ... 623.15 K
Pressure            ... 1.00 atm
Total Mass          ... 387.04 AMU

Throughout the following assumptions are being made:
  (1) The electronic state is orbitally nondegenerate
  (2) There are no thermally accessible electronically excited states
  (3) Hindered rotations indicated by low frequency modes are not
      treated as such but are treated as vibrations and this may
      cause some error
  (4) All equations used are the standard statistical mechanics
      equations for an ideal gas
  (5) All vibrations are strictly harmonic

freq.       9.04  E(vib)   ...       1.23 
freq.      14.45  E(vib)   ...       1.22 
freq.      21.02  E(vib)   ...       1.21 
freq.      21.40  E(vib)   ...       1.21 
freq.      39.51  E(vib)   ...       1.18 
freq.      46.05  E(vib)   ...       1.17 
freq.      50.24  E(vib)   ...       1.17 
freq.      65.21  E(vib)   ...       1.15 
freq.      69.97  E(vib)   ...       1.14 
freq.      74.77  E(vib)   ...       1.13 
freq.      81.35  E(vib)   ...       1.13 
freq.      85.65  E(vib)   ...       1.12 
freq.      90.50  E(vib)   ...       1.11 
freq.      93.35  E(vib)   ...       1.11 
freq.     109.08  E(vib)   ...       1.09 
freq.     145.03  E(vib)   ...       1.04 
freq.     155.57  E(vib)   ...       1.03 
freq.     223.66  E(vib)   ...       0.95 
freq.     223.69  E(vib)   ...       0.95 
freq.     257.28  E(vib)   ...       0.91 
freq.     258.23  E(vib)   ...       0.91 
freq.     327.30  E(vib)   ...       0.83 
freq.     328.58  E(vib)   ...       0.83 
freq.     328.74  E(vib)   ...       0.83 
freq.     346.49  E(vib)   ...       0.81 
freq.     408.59  E(vib)   ...       0.74 
freq.     409.26  E(vib)   ...       0.74 
freq.     432.13  E(vib)   ...       0.72 
freq.     432.81  E(vib)   ...       0.72 
freq.     485.50  E(vib)   ...       0.67 
freq.     486.18  E(vib)   ...       0.67 
freq.     498.11  E(vib)   ...       0.66 
freq.     498.45  E(vib)   ...       0.66 
freq.     500.88  E(vib)   ...       0.66 
freq.     548.15  E(vib)   ...       0.62 
freq.     548.69  E(vib)   ...       0.62 
freq.     550.68  E(vib)   ...       0.61 
freq.     551.18  E(vib)   ...       0.61 
freq.     570.18  E(vib)   ...       0.60 
freq.     570.40  E(vib)   ...       0.60 
freq.     641.92  E(vib)   ...       0.54 
freq.     643.10  E(vib)   ...       0.54 
freq.     673.84  E(vib)   ...       0.52 
freq.     675.00  E(vib)   ...       0.51 
freq.     735.14  E(vib)   ...       0.47 
freq.     766.94  E(vib)   ...       0.45 
freq.     767.00  E(vib)   ...       0.45 
freq.     772.33  E(vib)   ...       0.45 
freq.     772.90  E(vib)   ...       0.45 
freq.     842.22  E(vib)   ...       0.40 
freq.     842.70  E(vib)   ...       0.40 
freq.     863.86  E(vib)   ...       0.39 
freq.     863.99  E(vib)   ...       0.39 
freq.     898.53  E(vib)   ...       0.37 
freq.     899.89  E(vib)   ...       0.37 
freq.    1003.33  E(vib)   ...       0.31 
freq.    1003.94  E(vib)   ...       0.31 
freq.    1007.46  E(vib)   ...       0.31 
freq.    1016.22  E(vib)   ...       0.31 
freq.    1021.06  E(vib)   ...       0.31 
freq.    1021.87  E(vib)   ...       0.30 
freq.    1031.12  E(vib)   ...       0.30 
freq.    1057.56  E(vib)   ...       0.29 
freq.    1094.84  E(vib)   ...       0.27 
freq.    1106.48  E(vib)   ...       0.27 
freq.    1108.89  E(vib)   ...       0.27 
freq.    1119.59  E(vib)   ...       0.26 
freq.    1120.52  E(vib)   ...       0.26 
freq.    1128.92  E(vib)   ...       0.26 
freq.    1134.56  E(vib)   ...       0.25 
freq.    1197.05  E(vib)   ...       0.23 
freq.    1200.11  E(vib)   ...       0.23 
freq.    1312.54  E(vib)   ...       0.19 
freq.    1315.77  E(vib)   ...       0.19 
freq.    1374.14  E(vib)   ...       0.17 
freq.    1374.21  E(vib)   ...       0.17 
freq.    1379.26  E(vib)   ...       0.17 
freq.    1379.75  E(vib)   ...       0.17 
freq.    1437.73  E(vib)   ...       0.15 
freq.    1439.38  E(vib)   ...       0.15 
freq.    1482.63  E(vib)   ...       0.14 
freq.    1484.57  E(vib)   ...       0.14 
freq.    1604.55  E(vib)   ...       0.12 
freq.    1605.32  E(vib)   ...       0.12 
freq.    1616.31  E(vib)   ...       0.11 
freq.    1616.99  E(vib)   ...       0.11 
freq.    1653.47  E(vib)   ...       0.11 
freq.    1654.17  E(vib)   ...       0.11 
freq.    2382.54  E(vib)   ...       0.03 
freq.    2382.62  E(vib)   ...       0.03 
freq.    3215.88  E(vib)   ...       0.01 
freq.    3218.69  E(vib)   ...       0.01 
freq.    3233.04  E(vib)   ...       0.01 
freq.    3233.50  E(vib)   ...       0.01 
freq.    3235.59  E(vib)   ...       0.01 
freq.    3237.06  E(vib)   ...       0.01 
freq.    3246.04  E(vib)   ...       0.01 
freq.    3249.84  E(vib)   ...       0.01 

------------
INNER ENERGY
------------

The inner energy is: U= E(el) + E(ZPE) + E(vib) + E(rot) + E(trans)
    E(el)   - is the total energy from the electronic structure calculation
              = E(kin-el) + E(nuc-el) + E(el-el) + E(nuc-nuc)
    E(ZPE)  - the the zero temperature vibrational energy from the frequency calculation
    E(vib)  - the the finite temperature correction to E(ZPE) due to population
              of excited vibrational states
    E(rot)  - is the rotational thermal energy
    E(trans)- is the translational thermal energy

Summary of contributions to the inner energy U:
Electronic energy                ...  -1515.57707433 Eh
Zero point energy                ...      0.21723655 Eh     136.32 kcal/mol
Thermal vibrational correction   ...      0.07998883 Eh      50.19 kcal/mol
Thermal rotational correction    ...      0.00296009 Eh       1.86 kcal/mol
Thermal translational correction ...      0.00296009 Eh       1.86 kcal/mol
-----------------------------------------------------------------------
Total thermal energy                  -1515.27392878 Eh


Summary of corrections to the electronic energy:
(perhaps to be used in another calculation)
Total thermal correction                  0.08590900 Eh      53.91 kcal/mol
Non-thermal (ZPE) correction              0.21723655 Eh     136.32 kcal/mol
-----------------------------------------------------------------------
Total correction                          0.30314554 Eh     190.23 kcal/mol


--------
ENTHALPY
--------

The enthalpy is H = U + kB*T
                kB is Boltzmann's constant
Total free energy                 ...  -1515.27392878 Eh 
Thermal Enthalpy correction       ...      0.00197345 Eh       1.24 kcal/mol
-----------------------------------------------------------------------
Total Enthalpy                    ...  -1515.27195533 Eh


Note: Rotational entropy computed according to Herzberg 
Infrared and Raman Spectra, Chapter V,1, Van Nostrand Reinhold, 1945 
Point Group:  C1, Symmetry Number:   1  
Rotational constants in cm-1:     0.010386     0.002101     0.002031 

Vibrational entropy computed according to the QRRHO of S. Grimme
Chem.Eur.J. 2012 18 9955


-------
ENTROPY
-------

The entropy contributions are T*S = T*(S(el)+S(vib)+S(rot)+S(trans))
     S(el)   - electronic entropy
     S(vib)  - vibrational entropy
     S(rot)  - rotational entropy
     S(trans)- translational entropy
The entropies will be listed as mutliplied by the temperature to get
units of energy

Electronic entropy                ...      0.00000000 Eh      0.00 kcal/mol
Vibrational entropy               ...      0.15815146 Eh     99.24 kcal/mol
Rotational entropy                ...      0.03876725 Eh     24.33 kcal/mol
Translational entropy             ...      0.04708488 Eh     29.55 kcal/mol
-----------------------------------------------------------------------
Final entropy term                ...      0.24400359 Eh    153.11 kcal/mol


-------------------
GIBBS FREE ENTHALPY
-------------------

The Gibbs free enthalpy is G = H - T*S

Total enthalpy                    ...  -1515.27195533 Eh 
Total entropy correction          ...     -0.24400359 Eh   -153.11 kcal/mol
-----------------------------------------------------------------------
Final Gibbs free enthalpy         ...  -1515.51595892 Eh

For completeness - the Gibbs free enthalpy minus the electronic energy
G-E(el)                           ...      0.06111540 Eh     38.35 kcal/mol


Total Time for Numerical Frequencies  :     77334.180 sec

Timings for individual modules:

Sum of individual times         ...    34251.163 sec (= 570.853 min)
GTO integral calculation        ...      202.958 sec (=   3.383 min)   0.6 %
SCF iterations                  ...    27541.630 sec (= 459.027 min)  80.4 %
SCF Gradient evaluation         ...     6489.442 sec (= 108.157 min)  18.9 %
Geometry relaxation             ...       17.133 sec (=   0.286 min)   0.1 %
                             ****ORCA TERMINATED NORMALLY****
TOTAL RUN TIME: 1 days 6 hours 55 minutes 18 seconds 295 msec
