
                                 *****************
                                 * O   R   C   A *
                                 *****************

           --- An Ab Initio, DFT and Semiempirical electronic structure package ---

                  #######################################################
                  #                        -***-                        #
                  #          Department of theory and spectroscopy      #
                  #               Directorship: Frank Neese             #
                  #        Max Planck Institute fuer Kohlenforschung    #
                  #                Kaiser Wilhelm Platz 1               #
                  #                 D-45470 Muelheim/Ruhr               #
                  #                      Germany                        #
                  #                                                     #
                  #                  All rights reserved                #
                  #                        -***-                        #
                  #######################################################


                         Program Version 4.1.0  - RELEASE  -


 With contributions from (in alphabetic order):
   Daniel Aravena         : Magnetic Properties
   Michael Atanasov       : Ab Initio Ligand Field Theory
   Alexander A. Auer      : GIAO ZORA
   Ute Becker             : Parallelization
   Giovanni Bistoni       : ED, Open-shell LED
   Martin Brehm           : Molecular dynamics
   Dmytro Bykov           : SCF Hessian
   Vijay G. Chilkuri      : MRCI spin determinant printing
   Dipayan Datta          : RHF DLPNO-CCSD density
   Achintya Kumar Dutta   : EOM-CC, STEOM-CC
   Dmitry Ganyushin       : Spin-Orbit,Spin-Spin,Magnetic field MRCI
   Miquel Garcia          : C-PCM Hessian
   Yang Guo               : DLPNO-NEVPT2, CIM, IAO-localization
   Andreas Hansen         : Spin unrestricted coupled pair/coupled cluster methods
   Benjamin Helmich-Paris : CASSCF linear response (MC-RPA)
   Lee Huntington         : MR-EOM, pCC
   Robert Izsak           : Overlap fitted RIJCOSX, COSX-SCS-MP3, EOM
   Christian Kollmar      : KDIIS, OOCD, Brueckner-CCSD(T), CCSD density
   Simone Kossmann        : Meta GGA functionals, TD-DFT gradient, OOMP2, MP2 Hessian
   Martin Krupicka        : AUTO-CI
   Lucas Lang             : DCDCAS
   Dagmar Lenk            : GEPOL surface, SMD
   Dimitrios Liakos       : Extrapolation schemes; parallel MDCI
   Dimitrios Manganas     : ROCIS; embedding schemes
   Dimitrios Pantazis     : SARC Basis sets
   Taras Petrenko         : DFT Hessian,TD-DFT gradient, ASA, ECA, R-Raman, ABS, FL, XAS/XES, NRVS
   Peter Pinski           : DLPNO-MP2, DLPNO-MP2 Gradient
   Christoph Reimann      : Effective Core Potentials
   Marius Retegan         : Local ZFS, SOC
   Christoph Riplinger    : Optimizer, TS searches, QM/MM, DLPNO-CCSD(T), (RO)-DLPNO pert. Triples
   Tobias Risthaus        : Range-separated hybrids, TD-DFT gradient, RPA, STAB
   Michael Roemelt        : Restricted open shell CIS
   Masaaki Saitow         : Open-shell DLPNO
   Barbara Sandhoefer     : DKH picture change effects
   Avijit Sen             : IP-ROCIS
   Kantharuban Sivalingam : CASSCF convergence, NEVPT2, FIC-MRCI
   Bernardo de Souza      : ESD, SOC TD-DFT
   Georgi Stoychev        : AutoAux, RI-MP2 NMR
   Willem Van den Heuvel  : Paramagnetic NMR
   Boris Wezisla          : Elementary symmetry handling
   Frank Wennmohs         : Technical directorship


 We gratefully acknowledge several colleagues who have allowed us to
 interface, adapt or use parts of their codes:
   Stefan Grimme, W. Hujo, H. Kruse,             : VdW corrections, initial TS optimization,
                  C. Bannwarth                     DFT functionals, gCP, sTDA/sTD-DF
   Ed Valeev                                     : LibInt (2-el integral package), F12 methods
   Garnet Chan, S. Sharma, J. Yang, R. Olivares  : DMRG
   Ulf Ekstrom                                   : XCFun DFT Library
   Mihaly Kallay                                 : mrcc  (arbitrary order and MRCC methods)
   Andreas Klamt, Michael Diedenhofen            : otool_cosmo (COSMO solvation model)
   Jiri Pittner, Ondrej Demel                    : Mk-CCSD
   Frank Weinhold                                : gennbo (NPA and NBO analysis)
   Christopher J. Cramer and Donald G. Truhlar   : smd solvation model
   Lars Goerigk                                  : TD-DFT with DH, B97 family of functionals
   V. Asgeirsson, H. Jonsson                     : NEB implementation
   FAccTs GmbH                                   : IRC, NEB, NEB-TS, Multilevel


 Your calculation uses the libint2 library for the computation of 2-el integrals
 For citations please refer to: http://libint.valeyev.net

 This ORCA versions uses:
   CBLAS   interface :  Fast vector & matrix operations
   LAPACKE interface :  Fast linear algebra routines
   SCALAPACK package :  Parallel linear algebra routines


----- Orbital basis set information -----
Your calculation utilizes the basis: aug-cc-pVDZ 
    H, B-Ne : Obtained from the ccRepo (grant-hill.group.shef.ac.uk/ccrepo) Feb. 2017
              R. A. Kendall, T. H. Dunning, Jr., R. J. Harrison, J. Chem. Phys. 96, 6796 (1992)
         He : Obtained from the ccRepo (grant-hill.group.shef.ac.uk/ccrepo) Feb. 2017
              D. E. Woon, T. H. Dunning, Jr., J. Chem. Phys. 100, 2975 (1994)
  Li-Be, Na : Obtained from the ccRepo (grant-hill.group.shef.ac.uk/ccrepo) Feb. 2017
              B. P. Prascher, D. E. Woon, K. A. Peterson, T. H. Dunning, Jr., A. K. Wilson, Theor. Chem. Acc. 128, 69 (2011)
         Mg : Obtained from the Peterson Research Group Website (tyr0.chem.wsu.edu/~kipeters) Feb. 2017
              B. P. Prascher, D. E. Woon, K. A. Peterson, T. H. Dunning, Jr., A. K. Wilson, Theor. Chem. Acc. 128, 69 (2011)
      Al-Ar : Obtained from the ccRepo (grant-hill.group.shef.ac.uk/ccrepo) Feb. 2017
              D. E. Woon, T. H. Dunning, Jr., J. Chem. Phys. 98, 1358 (1993)
      Sc-Zn : Obtained from the ccRepo (grant-hill.group.shef.ac.uk/ccrepo) Feb. 2017
              N. B. Balabanov, K. A. Peterson, J. Chem. Phys. 123, 064107 (2005)
              N. B. Balabanov, K. A. Peterson, J. Chem. Phys. 125, 074110 (2006)
      Ga-Kr : Obtained from the ccRepo (grant-hill.group.shef.ac.uk/ccrepo) Feb. 2017
              A. K. Wilson, D. E. Woon, K. A. Peterson, T. H. Dunning, Jr., J. Chem. Phys. 110, 7667 (1999)

================================================================================
                                        WARNINGS
                       Please study these warnings very carefully!
================================================================================


WARNING: Geometry Optimization
  ===> : Switching off AutoStart
         For restart on a previous wavefunction, please use MOREAD

INFO   : the flag for use of LIBINT has been found!

================================================================================
                                       INPUT FILE
================================================================================
NAME = x2-4-NO2-Ph-N2-OTf-v2-B3LYPG-aug-cc-pVDZ.orc
|  1> ! B3LYP/G aug-cc-pVDZ TightSCF TightOpt NumFreq Grid7
|  2> %geom MaxIter 2000 TolE 1e-8 TolRMSG 5e-7 TolMaxG 1e-6 Convergence tight end
|  3> %scf MaxIter 2000 end
|  4> %freq Temp 298.15, 323.15, 373.15, 423.15, 473.15, 523.15, 573.15, 623.15 end
|  5> * xyz 1 1
|  6> C          -3.88210        -0.56990        -0.44900
|  7> C          -3.95430        -0.28450         0.92300
|  8> C          -5.11240        -0.45280         1.70780
|  9> C          -6.24920        -0.93360         1.07760
| 10> C          -6.18550        -1.22260        -0.28660
| 11> C          -5.03730        -1.05150        -1.05540
| 12> H          -2.95790        -0.39080        -0.98780
| 13> H          -5.11050        -0.21450         2.76530
| 14> H          -7.17580        -1.08770         1.61630
| 15> H          -5.05920        -1.29100        -2.11130
| 16> N          -2.82750         0.18610         1.58860
| 17> N          -1.99060         0.54660         2.23150
| 18> S           0.04850         1.00200        -0.27300
| 19> O           0.28750         0.39610         1.07320
| 20> O           1.15690         0.77310        -1.22490
| 21> O          -1.32440         0.77970        -0.77980
| 22> C           0.10530         2.83170         0.05470
| 23> F           1.34200         3.17070         0.47480
| 24> F          -0.77260         3.15570         1.01350
| 25> F          -0.17350         3.52390        -1.04690
| 26> H           2.32060        -0.17310         0.86680
| 27> C           3.31570        -0.56400         0.66000
| 28> C           4.19640         0.09930        -0.21550
| 29> C           3.77600        -1.74600         1.23160
| 30> C           5.48560        -0.35330        -0.53940
| 31> C           5.04990        -2.23950         0.93730
| 32> H           3.12980        -2.28930         1.91140
| 33> C           5.87730        -1.53580         0.05970
| 34> H           6.14910         0.17210        -1.21590
| 35> N           3.79130         1.28950        -0.79460
| 36> N           3.47750         2.25060        -1.25540
| 37> N          -7.41410        -1.73980        -0.95180
| 38> O          -7.32950        -1.99000        -2.14710
| 39> O          -8.40650        -1.87280        -0.24620
| 40> H           6.84980        -1.92610        -0.15690
| 41> N           5.54940        -3.48850         1.53020
| 42> O           6.65220        -3.85780         1.23730
| 43> O           4.83410        -4.08830         2.28320
| 44> 
| 45> *
| 46> %pal nprocs 42 end
| 47> 
| 48>                          ****END OF INPUT****
================================================================================

                       *****************************
                       * Geometry Optimization Run *
                       *****************************

Geometry optimization settings:
Update method            Update   .... BFGS
Choice of coordinates    CoordSys .... Z-matrix Internals
Initial Hessian          InHess   .... Almoef's Model

Convergence Tolerances:
Energy Change            TolE     ....  1.0000e-06 Eh
Max. Gradient            TolMAXG  ....  1.0000e-04 Eh/bohr
RMS Gradient             TolRMSG  ....  3.0000e-05 Eh/bohr
Max. Displacement        TolMAXD  ....  1.0000e-03 bohr
RMS Displacement         TolRMSD  ....  6.0000e-04 bohr

------------------------------------------------------------------------------
                        ORCA OPTIMIZATION COORDINATE SETUP
------------------------------------------------------------------------------

The optimization will be done in new redundant internal coordinates
Making redundant internal coordinates   ...  (new redundants) done
Evaluating the initial hessian          ...  (Almloef) done
Evaluating the coordinates              ...  done
Calculating the B-matrix                .... done
Calculating the G-matrix                .... done
Diagonalizing the G-matrix              .... done
Small eigenvalue found = 3.231e-03
Small eigenvalue found = 8.945e-03
Small eigenvalue found = 1.097e-02
Small eigenvalue found = 2.131e-02
Small eigenvalue found = 2.833e-02
The first mode is                       ....   92
The number of degrees of freedom        ....  108

    -----------------------------------------------------------------
                    Redundant Internal Coordinates


    -----------------------------------------------------------------
         Definition                    Initial Value    Approx d2E/dq
    -----------------------------------------------------------------
      1. B(C   1,C   0)                  1.4032         0.595160   
      2. B(C   2,C   1)                  1.4091         0.582559   
      3. B(C   3,C   2)                  1.3859         0.634349   
      4. B(C   4,C   3)                  1.3959         0.611333   
      5. B(C   5,C   0)                  1.3907         0.623109   
      6. B(C   5,C   4)                  1.3924         0.619382   
      7. B(H   6,C   0)                  1.0847         0.367209   
      8. B(H   7,C   2)                  1.0840         0.368100   
      9. B(H   8,C   3)                  1.0828         0.369704   
     10. B(H   9,C   5)                  1.0829         0.369558   
     11. B(N  10,C   1)                  1.3907         0.558072   
     12. B(N  11,N  10)                  1.1152         1.375404   
     13. B(O  13,S  12)                  1.4955         1.024096   
     14. B(O  13,N  11)                  2.5601         0.006811   
     15. B(O  14,S  12)                  1.4789         1.088567   
     16. B(O  15,S  12)                  1.4802         1.083096   
     17. B(O  15,H   6)                  2.0203         0.010576   
     18. B(C  16,S  12)                  1.8597         0.300026   
     19. B(F  17,C  16)                  1.3494         0.603629   
     20. B(F  18,C  16)                  1.3398         0.625326   
     21. B(F  19,C  16)                  1.3306         0.646841   
     22. B(H  20,O  14)                  2.5738         0.001384   
     23. B(H  20,O  13)                  2.1213         0.007297   
     24. B(C  21,H  20)                  1.0889         0.361503   
     25. B(C  22,C  21)                  1.4079         0.585096   
     26. B(C  23,C  21)                  1.3913         0.621811   
     27. B(C  24,C  22)                  1.4042         0.593026   
     28. B(C  25,C  23)                  1.3975         0.607841   
     29. B(H  26,C  23)                  1.0839         0.368237   
     30. B(C  27,C  25)                  1.3964         0.610251   
     31. B(C  27,C  24)                  1.3823         0.642806   
     32. B(H  28,C  24)                  1.0835         0.368829   
     33. B(N  29,C  22)                  1.3842         0.571626   
     34. B(N  29,O  14)                  2.7188         0.003802   
     35. B(N  30,N  29)                  1.1111         1.396355   
     36. B(N  30,O  14)                  2.7512         0.003375   
     37. B(N  31,C   4)                  1.4898         0.387867   
     38. B(O  32,N  31)                  1.2241         0.921816   
     39. B(O  33,N  31)                  1.2249         0.919166   
     40. B(H  34,C  27)                  1.0700         0.387483   
     41. B(N  35,C  25)                  1.4700         0.417032   
     42. B(O  36,N  35)                  1.1993         1.009831   
     43. B(O  37,N  35)                  1.1993         1.009703   
     44. A(C   1,C   0,C   5)          117.0017         0.431275   
     45. A(C   5,C   0,H   6)          123.2528         0.354380   
     46. A(C   1,C   0,H   6)          119.7317         0.351637   
     47. A(C   2,C   1,N  10)          116.0892         0.418494   
     48. A(C   0,C   1,N  10)          119.6748         0.420093   
     49. A(C   0,C   1,C   2)          124.2337         0.426101   
     50. A(C   3,C   2,H   7)          121.4203         0.355602   
     51. A(C   1,C   2,H   7)          121.0407         0.350512   
     52. A(C   1,C   2,C   3)          117.5390         0.431002   
     53. A(C   2,C   3,C   4)          118.6064         0.434754   
     54. A(C   4,C   3,H   8)          119.7204         0.353641   
     55. A(C   2,C   3,H   8)          121.6732         0.355864   
     56. A(C   3,C   4,N  31)          118.0733         0.395777   
     57. A(C   5,C   4,N  31)          118.4367         0.396687   
     58. A(C   3,C   4,C   5)          123.4900         0.432891   
     59. A(C   0,C   5,H   9)          121.2332         0.354763   
     60. A(C   0,C   5,C   4)          119.1289         0.434379   
     61. A(C   4,C   5,H   9)          119.6375         0.354402   
     62. A(C   0,H   6,O  15)          137.1754         0.179170   
     63. A(C   1,N  10,N  11)          173.3678         0.482589   
     64. A(N  10,N  11,O  13)          112.8272         0.232976   
     65. A(O  15,S  12,C  16)          103.6751         0.466810   
     66. A(O  14,S  12,C  16)          104.0528         0.467241   
     67. A(O  13,S  12,C  16)          103.5985         0.462050   
     68. A(O  14,S  12,O  15)          116.8412         0.591233   
     69. A(O  13,S  12,O  15)          113.3020         0.584340   
     70. A(O  13,S  12,O  14)          113.3860         0.584905   
     71. A(N  11,O  13,S  12)          103.9604         0.234534   
     72. A(S  12,O  14,N  29)          126.5093         0.218316   
     73. A(N  29,O  14,N  30)           23.4297         0.121375   
     74. A(S  12,O  14,N  30)          123.7932         0.214879   
     75. A(H   6,O  15,S  12)          150.7110         0.230528   
     76. A(F  18,C  16,F  19)          109.2317         0.428522   
     77. A(F  17,C  16,F  19)          108.6083         0.425819   
     78. A(S  12,C  16,F  19)          111.0728         0.401008   
     79. A(F  17,C  16,F  18)          108.4809         0.423250   
     80. A(S  12,C  16,F  18)          110.1224         0.398628   
     81. A(S  12,C  16,F  17)          109.2705         0.396163   
     82. A(H  20,C  21,C  23)          121.9567         0.353316   
     83. A(H  20,C  21,C  22)          121.3737         0.349700   
     84. A(C  22,C  21,C  23)          116.6658         0.429795   
     85. A(C  24,C  22,N  29)          116.7007         0.421626   
     86. A(C  21,C  22,N  29)          118.8286         0.420614   
     87. A(C  21,C  22,C  24)          124.4653         0.426159   
     88. A(C  25,C  23,H  26)          119.9022         0.353061   
     89. A(C  21,C  23,H  26)          119.0950         0.354422   
     90. A(C  21,C  23,C  25)          121.0023         0.432749   
     91. A(C  27,C  24,H  28)          120.7920         0.356522   
     92. A(C  22,C  24,H  28)          123.3634         0.351685   
     93. A(C  22,C  24,C  27)          115.8444         0.433414   
     94. A(C  27,C  25,N  35)          118.7053         0.400728   
     95. A(C  23,C  25,N  35)          121.6571         0.400449   
     96. A(C  23,C  25,C  27)          119.6376         0.431293   
     97. A(C  25,C  27,H  34)          118.8101         0.356363   
     98. A(C  24,C  27,H  34)          118.8060         0.359526   
     99. A(C  24,C  27,C  25)          122.3840         0.435653   
    100. A(O  14,N  29,N  30)           79.9214         0.215609   
    101. A(O  14,N  29,C  22)          100.7469         0.193311   
    102. A(O  14,N  30,N  29)           76.6489         0.212243   
    103. A(O  32,N  31,O  33)          126.6033         0.488113   
    104. A(C   4,N  31,O  33)          116.6558         0.419874   
    105. A(C   4,N  31,O  32)          116.7408         0.420089   
    106. A(O  36,N  35,O  37)          123.2131         0.505193   
    107. A(C  25,N  35,O  37)          118.3906         0.432576   
    108. A(C  25,N  35,O  36)          118.3963         0.432586   
    109. D(N  10,C   1,C   0,H   6)     -2.0062         0.024398   
    110. D(C   2,C   1,C   0,C   5)     -0.1314         0.024398   
    111. D(C   2,C   1,C   0,H   6)    178.5616         0.024398   
    112. D(N  10,C   1,C   0,C   5)    179.3007         0.024398   
    113. D(C   3,C   2,C   1,C   0)      0.1037         0.023326   
    114. D(H   7,C   2,C   1,C   0)   -179.9285         0.023326   
    115. D(C   3,C   2,C   1,N  10)   -179.3470         0.023326   
    116. D(H   7,C   2,C   1,N  10)      0.6208         0.023326   
    117. D(C   4,C   3,C   2,H   7)   -179.9421         0.027925   
    118. D(H   8,C   3,C   2,H   7)      0.0709         0.027925   
    119. D(C   4,C   3,C   2,C   1)      0.0255         0.027925   
    120. D(H   8,C   3,C   2,C   1)   -179.9614         0.027925   
    121. D(N  31,C   4,C   3,C   2)    179.9526         0.025818   
    122. D(C   5,C   4,C   3,H   8)    179.8610         0.025818   
    123. D(N  31,C   4,C   3,H   8)     -0.0602         0.025818   
    124. D(C   5,C   4,C   3,C   2)     -0.1262         0.025818   
    125. D(H   9,C   5,C   4,N  31)      0.2381         0.026543   
    126. D(C   0,C   5,C   4,N  31)   -179.9814         0.026543   
    127. D(C   0,C   5,C   4,C   3)      0.0977         0.026543   
    128. D(C   4,C   5,C   0,H   6)   -178.6133         0.026883   
    129. D(H   9,C   5,C   0,C   1)    179.8063         0.026883   
    130. D(H   9,C   5,C   4,C   3)   -179.6828         0.026543   
    131. D(C   4,C   5,C   0,C   1)      0.0295         0.026883   
    132. D(H   9,C   5,C   0,H   6)      1.1635         0.026883   
    133. D(O  15,H   6,C   0,C   5)    154.9435         0.114971   
    134. D(O  15,H   6,C   0,C   1)    -23.6640         0.114971   
    135. D(N  11,N  10,C   1,C   2)      8.7852         0.022557   
    136. D(N  11,N  10,C   1,C   0)   -170.6920         0.022557   
    137. D(O  13,N  11,N  10,C   1)    158.7087         0.183846   
    138. D(N  11,O  13,S  12,O  14)   -168.0698         0.025560   
    139. D(S  12,O  13,N  11,N  10)     47.7420         0.001503   
    140. D(N  11,O  13,S  12,C  16)     79.7955         0.025560   
    141. D(N  11,O  13,S  12,O  15)    -31.8599         0.025560   
    142. D(N  30,O  14,S  12,O  15)    145.0846         0.031192   
    143. D(N  30,O  14,S  12,O  13)    -80.3391         0.031192   
    144. D(N  29,O  14,S  12,C  16)     60.0875         0.031192   
    145. D(N  29,O  14,S  12,O  15)    173.6533         0.031192   
    146. D(N  30,O  14,S  12,C  16)     31.5188         0.031192   
    147. D(N  29,O  14,S  12,O  13)    -51.7705         0.031192   
    148. D(H   6,O  15,S  12,C  16)   -148.8175         0.026423   
    149. D(H   6,O  15,S  12,O  14)     97.4041         0.026423   
    150. D(H   6,O  15,S  12,O  13)    -37.2089         0.026423   
    151. D(S  12,O  15,H   6,C   0)     90.9149         0.001551   
    152. D(F  19,C  16,S  12,O  15)    -57.6853         0.003179   
    153. D(F  19,C  16,S  12,O  14)     64.9936         0.003179   
    154. D(F  19,C  16,S  12,O  13)   -176.2218         0.003179   
    155. D(F  18,C  16,S  12,O  15)     63.4541         0.003179   
    156. D(F  18,C  16,S  12,O  14)   -173.8670         0.003179   
    157. D(F  18,C  16,S  12,O  13)    -55.0824         0.003179   
    158. D(F  17,C  16,S  12,O  15)   -177.4857         0.003179   
    159. D(F  17,C  16,S  12,O  14)    -54.8067         0.003179   
    160. D(F  17,C  16,S  12,O  13)     63.9779         0.003179   
    161. D(N  29,C  22,C  21,C  23)   -179.0949         0.023539   
    162. D(N  29,C  22,C  21,H  20)      1.6007         0.023539   
    163. D(C  24,C  22,C  21,C  23)      0.0277         0.023539   
    164. D(C  24,C  22,C  21,H  20)   -179.2767         0.023539   
    165. D(H  26,C  23,C  21,C  22)   -179.9674         0.026764   
    166. D(H  26,C  23,C  21,H  20)     -0.6674         0.026764   
    167. D(C  25,C  23,C  21,C  22)     -0.2249         0.026764   
    168. D(C  25,C  23,C  21,H  20)    179.0751         0.026764   
    169. D(H  28,C  24,C  22,C  21)   -179.9824         0.024214   
    170. D(C  27,C  24,C  22,N  29)    179.3342         0.024214   
    171. D(C  27,C  24,C  22,C  21)      0.1946         0.024214   
    172. D(H  28,C  24,C  22,N  29)     -0.8428         0.024214   
    173. D(N  35,C  25,C  23,H  26)     -0.0965         0.025507   
    174. D(N  35,C  25,C  23,C  21)   -179.8369         0.025507   
    175. D(C  27,C  25,C  23,H  26)    179.9348         0.025507   
    176. D(C  27,C  25,C  23,C  21)      0.1943         0.025507   
    177. D(H  34,C  27,C  25,N  35)      0.0782         0.025721   
    178. D(H  34,C  27,C  25,C  23)   -179.9521         0.025721   
    179. D(C  24,C  27,C  25,N  35)   -179.9230         0.025721   
    180. D(C  24,C  27,C  25,C  23)      0.0467         0.025721   
    181. D(H  34,C  27,C  24,H  28)     -0.0587         0.028726   
    182. D(H  34,C  27,C  24,C  22)    179.7692         0.028726   
    183. D(C  25,C  27,C  24,H  28)    179.9425         0.028726   
    184. D(C  25,C  27,C  24,C  22)     -0.2296         0.028726   
    185. D(O  14,N  29,C  22,C  24)    143.7798         0.026160   
    186. D(O  14,N  29,C  22,C  21)    -37.0300         0.026160   
    187. D(N  30,N  29,O  14,S  12)    -91.8467         0.001501   
    188. D(C  22,N  29,O  14,N  30)    179.8295         0.001501   
    189. D(C  22,N  29,O  14,S  12)     87.9828         0.001501   
    190. D(O  14,N  30,C  22,C  24)    143.8454         0.001505   
    191. D(O  14,N  30,C  22,C  21)    -37.2146         0.001505   
    192. D(N  29,N  30,O  14,S  12)    104.8366         0.001501   
    193. D(O  33,N  31,C   4,C   5)   -179.7231         0.011908   
    194. D(O  33,N  31,C   4,C   3)      0.2022         0.011908   
    195. D(O  32,N  31,C   4,C   5)      0.3486         0.011908   
    196. D(O  32,N  31,C   4,C   3)   -179.7261         0.011908   
    197. D(O  37,N  35,C  25,C  27)    179.9982         0.013710   
    198. D(O  37,N  35,C  25,C  23)      0.0292         0.013710   
    199. D(O  36,N  35,C  25,C  27)     -0.0002         0.013710   
    200. D(O  36,N  35,C  25,C  23)   -179.9692         0.013710   
    -----------------------------------------------------------------

Number of atoms                         .... 38
Number of degrees of freedom            .... 200

         *************************************************************
         *                GEOMETRY OPTIMIZATION CYCLE   1            *
         *************************************************************
---------------------------------
CARTESIAN COORDINATES (ANGSTROEM)
---------------------------------
  C     -3.882100   -0.569900   -0.449000
  C     -3.954300   -0.284500    0.923000
  C     -5.112400   -0.452800    1.707800
  C     -6.249200   -0.933600    1.077600
  C     -6.185500   -1.222600   -0.286600
  C     -5.037300   -1.051500   -1.055400
  H     -2.957900   -0.390800   -0.987800
  H     -5.110500   -0.214500    2.765300
  H     -7.175800   -1.087700    1.616300
  H     -5.059200   -1.291000   -2.111300
  N     -2.827500    0.186100    1.588600
  N     -1.990600    0.546600    2.231500
  S      0.048500    1.002000   -0.273000
  O      0.287500    0.396100    1.073200
  O      1.156900    0.773100   -1.224900
  O     -1.324400    0.779700   -0.779800
  C      0.105300    2.831700    0.054700
  F      1.342000    3.170700    0.474800
  F     -0.772600    3.155700    1.013500
  F     -0.173500    3.523900   -1.046900
  H      2.320600   -0.173100    0.866800
  C      3.315700   -0.564000    0.660000
  C      4.196400    0.099300   -0.215500
  C      3.776000   -1.746000    1.231600
  C      5.485600   -0.353300   -0.539400
  C      5.049900   -2.239500    0.937300
  H      3.129800   -2.289300    1.911400
  C      5.877300   -1.535800    0.059700
  H      6.149100    0.172100   -1.215900
  N      3.791300    1.289500   -0.794600
  N      3.477500    2.250600   -1.255400
  N     -7.414100   -1.739800   -0.951800
  O     -7.329500   -1.990000   -2.147100
  O     -8.406500   -1.872800   -0.246200
  H      6.849800   -1.926100   -0.156900
  N      5.549400   -3.488500    1.530200
  O      6.652200   -3.857800    1.237300
  O      4.834100   -4.088300    2.283200

----------------------------
CARTESIAN COORDINATES (A.U.)
----------------------------
  NO LB      ZA    FRAG     MASS         X           Y           Z
   0 C     6.0000    0    12.011   -7.336106   -1.076955   -0.848487
   1 C     6.0000    0    12.011   -7.472544   -0.537627    1.744217
   2 C     6.0000    0    12.011   -9.661036   -0.855668    3.227274
   3 C     6.0000    0    12.011  -11.809277   -1.764248    2.036369
   4 C     6.0000    0    12.011  -11.688901   -2.310379   -0.541596
   5 C     6.0000    0    12.011   -9.519117   -1.987047   -1.994417
   6 H     1.0000    0     1.008   -5.589621   -0.738505   -1.866671
   7 H     1.0000    0     1.008   -9.657445   -0.405346    5.225660
   8 H     1.0000    0     1.008  -13.560297   -2.055455    3.054364
   9 H     1.0000    0     1.008   -9.560502   -2.439636   -3.989779
  10 N     7.0000    0    14.007   -5.343201    0.351678    3.002019
  11 N     7.0000    0    14.007   -3.761689    1.032924    4.216924
  12 S    16.0000    0    32.060    0.091652    1.893506   -0.515895
  13 O     8.0000    0    15.999    0.543296    0.748521    2.028054
  14 O     8.0000    0    15.999    2.186224    1.460947   -2.314726
  15 O     8.0000    0    15.999   -2.502753    1.473419   -1.473608
  16 C     6.0000    0    12.011    0.198988    5.351137    0.103368
  17 F     9.0000    0    18.998    2.536012    5.991755    0.897242
  18 F     9.0000    0    18.998   -1.460002    5.963409    1.915237
  19 F     9.0000    0    18.998   -0.327867    6.659206   -1.978354
  20 H     1.0000    0     1.008    4.385298   -0.327112    1.638015
  21 C     6.0000    0    12.011    6.265765   -1.065806    1.247219
  22 C     6.0000    0    12.011    7.930047    0.187650   -0.407236
  23 C     6.0000    0    12.011    7.135606   -3.299462    2.327387
  24 C     6.0000    0    12.011   10.366282   -0.667640   -1.019318
  25 C     6.0000    0    12.011    9.542928   -4.232042    1.771240
  26 H     1.0000    0     1.008    5.914465   -4.326150    3.612023
  27 C     6.0000    0    12.011   11.106487   -2.902241    0.112817
  28 H     1.0000    0     1.008   11.620115    0.325222   -2.297718
  29 N     7.0000    0    14.007    7.164519    2.436802   -1.501576
  30 N     7.0000    0    14.007    6.571523    4.253018   -2.372362
  31 N     7.0000    0    14.007  -14.010619   -3.287746   -1.798641
  32 O     8.0000    0    15.999  -13.850748   -3.760555   -4.057431
  33 O     8.0000    0    15.999  -15.885983   -3.539079   -0.465251
  34 H     1.0000    0     1.008   12.944246   -3.639802   -0.296498
  35 N     7.0000    0    14.007   10.486846   -6.592310    2.891659
  36 O     8.0000    0    15.999   12.570836   -7.290185    2.338158
  37 O     8.0000    0    15.999    9.135125   -7.725767    4.314623

--------------------------------
INTERNAL COORDINATES (ANGSTROEM)
--------------------------------
 C      0   0   0     0.000000000000     0.00000000     0.00000000
 C      1   0   0     1.403228420465     0.00000000     0.00000000
 C      2   1   0     1.409053419853   124.23374555     0.00000000
 C      3   2   1     1.385869734138   117.53902169     0.10368632
 C      4   3   2     1.395929915863   118.60639629     0.02554218
 C      1   2   3     1.390735977819   117.00172489   359.86856463
 H      1   2   3     1.084678703580   119.73172113   178.56159254
 H      3   2   1     1.084018795963   121.04069648   180.07148815
 H      4   3   2     1.082835195217   121.67319791   180.03855858
 H      6   1   2     1.082942597740   121.23318348   179.80634376
 N      2   1   3     1.390742952526   119.67482266   179.43216541
 N     11   2   1     1.115205034960   173.36778162   189.30795656
 S     12  11   2     3.261569901137    94.10777655   177.98874828
 O     13  12  11     1.495489969876    49.61787474   223.15028867
 O     13  12  11     1.478870981526   160.25787122   257.32445911
 O     13  12  11     1.480242527426    70.24997231    12.14685610
 C     13  12  11     1.859681591026    91.21243159   116.24891134
 F     17  13  12     1.349382043752   109.27048597   112.55605272
 F     17  13  12     1.339769327160   110.12237017   353.49577339
 F     17  13  12     1.330561099687   111.07282250   232.35639334
 H     14  13  12     2.121340427654   100.03749633   177.47528398
 C     21  14  13     1.088941256451   172.14157523   292.77911507
 C     22  21  14     1.407870601298   121.37374081    98.81737795
 C     22  21  14     1.391303938757   121.95667347   279.55005339
 C     23  22  21     1.404206042574   124.46525993   180.72327878
 C     24  22  21     1.397489159171   121.00227559   179.07506432
 H     24  22  21     1.083917602957   119.09504560   359.33256418
 C     25  23  22     1.382264790118   115.84439567     0.19460743
 H     25  23  22     1.083480345922   123.36341485   180.01759885
 N     23  22  21     1.384210554793   118.82864659     1.60069913
 N     30  23  22     1.111089685849   179.31103303   128.86773233
 N      5   4   3     1.489780131429   118.07330008   179.95258582
 O     32   5   4     1.224132055785   116.74079962   180.27386846
 O     32   5   4     1.224915556273   116.65583713     0.20218400
 H     28  25  23     1.070049484837   118.80597078   179.76920642
 N     26  24  22     1.470044781631   121.65706861   180.16306538
 O     36  26  24     1.199308442395   118.39633351   180.03079606
 O     36  26  24     1.199342790865   118.39055761     0.02921430

---------------------------
INTERNAL COORDINATES (A.U.)
---------------------------
 C      0   0   0     0.000000000000     0.00000000     0.00000000
 C      1   0   0     2.651717418013     0.00000000     0.00000000
 C      2   1   0     2.662725071588   124.23374555     0.00000000
 C      3   2   1     2.618914254811   117.53902169     0.10368632
 C      4   3   2     2.637925243128   118.60639629     0.02554218
 C      1   2   3     2.628110122669   117.00172489   359.86856463
 H      1   2   3     2.049745693063   119.73172113   178.56159254
 H      3   2   1     2.048498648392   121.04069648   180.07148815
 H      4   3   2     2.046261967131   121.67319791   180.03855858
 H      6   1   2     2.046464928486   121.23318348   179.80634376
 N      2   1   3     2.628123302955   119.67482266   179.43216541
 N     11   2   1     2.107432099244   173.36778162   189.30795656
 S     12  11   2     6.163473879789    94.10777655   177.98874828
 O     13  12  11     2.826066479092    49.61787474   223.15028867
 O     13  12  11     2.794661142488   160.25787122   257.32445911
 O     13  12  11     2.797252988618    70.24997231    12.14685610
 C     13  12  11     3.514288903334    91.21243159   116.24891134
 F     17  13  12     2.549962512722   109.27048597   112.55605272
 F     17  13  12     2.531797110961   110.12237017   353.49577339
 F     17  13  12     2.514396082857   111.07282250   232.35639334
 H     14  13  12     4.008752445082   100.03749633   177.47528398
 C     21  14  13     2.057800750620   172.14157523   292.77911507
 C     22  21  14     2.660489868453   121.37374081    98.81737795
 C     22  21  14     2.629183413296   121.95667347   279.55005339
 C     23  22  21     2.653564856061   124.46525993   180.72327878
 C     24  22  21     2.640871785957   121.00227559   179.07506432
 H     24  22  21     2.048307421325   119.09504560   359.33256418
 C     25  23  22     2.612101897885   115.84439567     0.19460743
 H     25  23  22     2.047481125279   123.36341485   180.01759885
 N     23  22  21     2.615778860242   118.82864659     1.60069913
 N     30  23  22     2.099655216479   179.31103303   128.86773233
 N      5   4   3     2.815276448158   118.07330008   179.95258582
 O     32   5   4     2.313274337187   116.74079962   180.27386846
 O     32   5   4     2.314754938536   116.65583713     0.20218400
 H     28  25  23     2.022100476086   118.80597078   179.76920642
 N     26  24  22     2.777982041882   121.65706861   180.16306538
 O     36  26  24     2.266364506226   118.39633351   180.03079606
 O     36  26  24     2.266429415428   118.39055761     0.02921430

---------------------
BASIS SET INFORMATION
---------------------
There are 6 groups of distinct atoms

 Group   1 Type C   : 18s5p2d contracted to 4s3p2d pattern {8811/311/11}
 Group   2 Type H   : 5s2p contracted to 3s2p pattern {311/11}
 Group   3 Type N   : 18s5p2d contracted to 4s3p2d pattern {8811/311/11}
 Group   4 Type S   : 35s16p2d contracted to 5s4p2d pattern {11111111/7711/11}
 Group   5 Type O   : 18s5p2d contracted to 4s3p2d pattern {8811/311/11}
 Group   6 Type F   : 18s5p2d contracted to 4s3p2d pattern {8811/311/11}

Atom   0C    basis set group =>   1
Atom   1C    basis set group =>   1
Atom   2C    basis set group =>   1
Atom   3C    basis set group =>   1
Atom   4C    basis set group =>   1
Atom   5C    basis set group =>   1
Atom   6H    basis set group =>   2
Atom   7H    basis set group =>   2
Atom   8H    basis set group =>   2
Atom   9H    basis set group =>   2
Atom  10N    basis set group =>   3
Atom  11N    basis set group =>   3
Atom  12S    basis set group =>   4
Atom  13O    basis set group =>   5
Atom  14O    basis set group =>   5
Atom  15O    basis set group =>   5
Atom  16C    basis set group =>   1
Atom  17F    basis set group =>   6
Atom  18F    basis set group =>   6
Atom  19F    basis set group =>   6
Atom  20H    basis set group =>   2
Atom  21C    basis set group =>   1
Atom  22C    basis set group =>   1
Atom  23C    basis set group =>   1
Atom  24C    basis set group =>   1
Atom  25C    basis set group =>   1
Atom  26H    basis set group =>   2
Atom  27C    basis set group =>   1
Atom  28H    basis set group =>   2
Atom  29N    basis set group =>   3
Atom  30N    basis set group =>   3
Atom  31N    basis set group =>   3
Atom  32O    basis set group =>   5
Atom  33O    basis set group =>   5
Atom  34H    basis set group =>   2
Atom  35N    basis set group =>   3
Atom  36O    basis set group =>   5
Atom  37O    basis set group =>   5


           ************************************************************
           *        Program running with 42 parallel MPI-processes    *
           *            working without local directories             *
           ************************************************************
------------------------------------------------------------------------------
                           ORCA GTO INTEGRAL CALCULATION
------------------------------------------------------------------------------

                         BASIS SET STATISTICS AND STARTUP INFO

 # of primitive gaussian shells          ...  834
 # of primitive gaussian functions       ... 1428
 # of contracted shells                  ...  312
 # of contracted basis functions         ...  766
 Highest angular momentum                ...    2
 Maximum contraction depth               ...   11
 Integral package used                   ... LIBINT
 Integral threshhold            Thresh   ...  2.500e-11
 Primitive cut-off              TCut     ...  2.500e-12


------------------------------ INTEGRAL EVALUATION ----------------------------


 * One electron integrals 
 Pre-screening matrix                    ... done
 Shell pair data                         ... done (   0.020 sec)



           ************************************************************
           *        Program running with 42 parallel MPI-processes    *
           *            working without local directories             *
           ************************************************************
-------------------------------------------------------------------------------
                                 ORCA SCF
-------------------------------------------------------------------------------

------------
SCF SETTINGS
------------
Hamiltonian:
 Density Functional     Method          .... DFT(GTOs)
 Exchange Functional    Exchange        .... B88
   X-Alpha parameter    XAlpha          ....  0.666667
   Becke's b parameter  XBeta           ....  0.004200
 Correlation Functional Correlation     .... LYP
 LDA part of GGA corr.  LDAOpt          .... VWN-3
 Gradients option       PostSCFGGA      .... off
 Hybrid DFT is turned on
   Fraction HF Exchange ScalHFX         ....  0.200000
   Scaling of DF-GGA-X  ScalDFX         ....  0.720000
   Scaling of DF-GGA-C  ScalDFC         ....  0.810000
   Scaling of DF-LDA-C  ScalLDAC        ....  1.000000
   Perturbative correction              ....  0.000000
   Density functional embedding theory  .... OFF
   NL short-range parameter             ....  4.800000


General Settings:
 Integral files         IntName         .... x2-4-NO2-Ph-N2-OTf-v2-B3LYPG-aug-cc-pVDZ
 Hartree-Fock type      HFTyp           .... RHF
 Total Charge           Charge          ....    1
 Multiplicity           Mult            ....    1
 Number of Electrons    NEL             ....  226
 Basis Dimension        Dim             ....  766
 Nuclear Repulsion      ENuc            ....   3009.6596795401 Eh

Convergence Acceleration:
 DIIS                   CNVDIIS         .... on
   Start iteration      DIISMaxIt       ....    12
   Startup error        DIISStart       ....  0.200000
   # of expansion vecs  DIISMaxEq       ....     5
   Bias factor          DIISBfac        ....   1.050
   Max. coefficient     DIISMaxC        ....  10.000
 Newton-Raphson         CNVNR           .... off
 SOSCF                  CNVSOSCF        .... on
   Start iteration      SOSCFMaxIt      ....   150
   Startup grad/error   SOSCFStart      ....  0.003300
 Level Shifting         CNVShift        .... on
   Level shift para.    LevelShift      ....    0.2500
   Turn off err/grad.   ShiftErr        ....    0.0010
 Zerner damping         CNVZerner       .... off
 Static damping         CNVDamp         .... on
   Fraction old density DampFac         ....    0.7000
   Max. Damping (<1)    DampMax         ....    0.9800
   Min. Damping (>=0)   DampMin         ....    0.0000
   Turn off err/grad.   DampErr         ....    0.1000
 Fernandez-Rico         CNVRico         .... off

SCF Procedure:
 Maximum # iterations   MaxIter         ....  2000
 SCF integral mode      SCFMode         .... Direct
   Integral package                     .... LIBINT
 Reset frequency        DirectResetFreq ....    20
 Integral Threshold     Thresh          ....  2.500e-11 Eh
 Primitive CutOff       TCut            ....  2.500e-12 Eh

Convergence Tolerance:
 Convergence Check Mode ConvCheckMode   .... Total+1el-Energy
 Convergence forced     ConvForced      .... 0
 Energy Change          TolE            ....  1.000e-08 Eh
 1-El. energy change                    ....  1.000e-05 Eh
 Orbital Gradient       TolG            ....  1.000e-05
 Orbital Rotation angle TolX            ....  1.000e-05
 DIIS Error             TolErr          ....  5.000e-07


Diagonalization of the overlap matrix:
Smallest eigenvalue                        ... 1.356e-06
Time for diagonalization                   ...    0.209 sec
Threshold for overlap eigenvalues          ... 1.000e-08
Number of eigenvalues below threshold      ... 0
Time for construction of square roots      ...    1.897 sec
Total time needed                          ...    2.108 sec

-------------------
DFT GRID GENERATION
-------------------

General Integration Accuracy     IntAcc      ...  5.670
Radial Grid Type                 RadialGrid  ... Gauss-Chebyshev
Angular Grid (max. acc.)         AngularGrid ... Lebedev-770
Angular grid pruning method      GridPruning ... 3 (G Style)
Weight generation scheme         WeightScheme... Becke
Basis function cutoff            BFCut       ...    1.0000e-11
Integration weight cutoff        WCut        ...    1.0000e-14
Grids for H and He will be reduced by one unit

# of grid points (after initial pruning)     ... 897066 (   0.0 sec)
# of grid points (after weights+screening)   ... 799365 (   1.1 sec)
nearest neighbour list constructed           ...    0.0 sec
Grid point re-assignment to atoms done       ...    0.3 sec
Grid point division into batches done        ...   17.5 sec
Reduced shell lists constructed in   18.4 sec

Total number of grid points                  ...   799365
Total number of batches                      ...    12511
Average number of points per batch           ...       63
Average number of grid points per atom       ...    21036
Average number of shells per batch           ...   155.04 (49.69%)
Average number of basis functions per batch  ...   364.72 (47.61%)
Average number of large shells per batch     ...   111.72 (72.05%)
Average number of large basis fcns per batch ...   270.42 (74.15%)
Maximum spatial batch extension              ...   4.25,  9.43,  3.75 au
Average spatial batch extension              ...   0.02,  0.02,  0.02 au

Time for grid setup =   24.562 sec

------------------------------
INITIAL GUESS: MODEL POTENTIAL
------------------------------
Loading Hartree-Fock densities                     ... done
Calculating cut-offs                               ... done
Setting up the integral package                    ... done
Initializing the effective Hamiltonian             ... done
Starting the Coulomb interaction                   ... done (   0.3 sec)
Reading the grid                                   ... done
Mapping shells                                     ... done
Starting the XC term evaluation                    ... done (   1.5 sec)
  promolecular density results
     # of electrons  =    226.996090729
     EX              =   -221.264597693
     EC              =     -8.219365058
     EX+EC           =   -229.483962752
Transforming the Hamiltonian                       ... done (   0.2 sec)
Diagonalizing the Hamiltonian                      ... done (   0.3 sec)
Back transforming the eigenvectors                 ... done (   0.9 sec)
Now organizing SCF variables                       ... done
                      ------------------
                      INITIAL GUESS DONE (  27.9 sec)
                      ------------------
--------------
SCF ITERATIONS
--------------
ITER       Energy         Delta-E        Max-DP      RMS-DP      [F,P]     Damp
               ***  Starting incremental Fock matrix formation  ***
  0  -2051.6972069415   0.000000000000 2.43288983  0.01453856  0.3019600 0.7000
  1  -2052.1449866361  -0.447779694595 1.85196159  0.01021150  0.1069479 0.7000
                               ***Turning on DIIS***
  2  -2052.2757578504  -0.130771214321 4.66763333  0.02299169  0.0230121 0.0000
  3  -2052.5454319541  -0.269674103683 0.13658667  0.00218385  0.0573834 0.0000
  4  -2052.5829882328  -0.037556278729 0.12448811  0.00099588  0.0148061 0.0000
  5  -2052.5869575414  -0.003969308605 0.16694409  0.00103232  0.0049066 0.0000
                      *** Initiating the SOSCF procedure ***
                           *** Shutting down DIIS ***
                      *** Re-Reading the Fockian *** 
                      *** Removing any level shift *** 
ITER      Energy       Delta-E        Grad      Rot      Max-DP    RMS-DP
  6  -2052.58723648  -0.0002789407  0.001430  0.001430  0.146609  0.001275
               *** Restarting incremental Fock matrix formation ***
  7  -2052.58728740  -0.0000509182  0.000919  0.006041  0.147728  0.001183
  8  -2052.58723201   0.0000553918  0.002376  0.001559  0.054695  0.000320
  9  -2052.58731881  -0.0000868022  0.000183  0.000976  0.136302  0.000845
 10  -2052.58731427   0.0000045424  0.000287  0.000550  0.146658  0.000682
 11  -2052.58732107  -0.0000068028  0.000053  0.000242  0.205195  0.001185
 12  -2052.58732037   0.0000007040  0.000155  0.000192  0.048361  0.000308
 13  -2052.58732111  -0.0000007392  0.000018  0.000132  0.095056  0.000371
 14  -2052.58732104   0.0000000657  0.000029  0.000070  0.086654  0.000527
 15  -2052.58732113  -0.0000000872  0.000006  0.000042  0.220491  0.000978
 16  -2052.58732116  -0.0000000324  0.000016  0.000016  0.117183  0.000667
 17  -2052.58732120  -0.0000000354  0.000007  0.000031  0.207993  0.000970
 18  -2052.58732120  -0.0000000030  0.000009  0.000014  0.053181  0.000266
 19  -2052.58732122  -0.0000000224  0.000005  0.000013  0.122141  0.000518
 20  -2052.58732124  -0.0000000200  0.000005  0.000007  0.067359  0.000404
 21  -2052.58732124   0.0000000005  0.000006  0.000008  0.047107  0.000296
 22  -2052.58732124  -0.0000000004  0.000004  0.000010  0.149868  0.000929
 23  -2052.58732121   0.0000000313  0.000005  0.000012  0.047294  0.000356
 24  -2052.58732122  -0.0000000095  0.000003  0.000004  0.077264  0.000462
 25  -2052.58732123  -0.0000000071  0.000004  0.000001  0.034892  0.000209
 26  -2052.58732123  -0.0000000057  0.000018  0.000014  0.314703  0.001491
               *** Restarting incremental Fock matrix formation ***
 27  -2052.58732113   0.0000001048  0.000023  0.000012  0.250804  0.001202
 28  -2052.58732121  -0.0000000783  0.000018  0.000006  0.147949  0.000690
 29  -2052.58732121  -0.0000000054  0.000017  0.000005  0.109539  0.000555
 30  -2052.58732122  -0.0000000058  0.000014  0.000009  0.090079  0.000580
 31  -2052.58732126  -0.0000000387  0.000014  0.000019  0.271783  0.001900
 32  -2052.58732129  -0.0000000381  0.000012  0.000030  0.089523  0.000422
 33  -2052.58732130  -0.0000000087  0.000011  0.000019  0.140923  0.000776
                 **** Energy Check signals convergence ****
              ***Rediagonalizing the Fockian in SOSCF/NRSCF***

               *****************************************************
               *                     SUCCESS                       *
               *           SCF CONVERGED AFTER  34 CYCLES          *
               *****************************************************


----------------
TOTAL SCF ENERGY
----------------

Total Energy       :        -2052.58732130 Eh          -55853.74056 eV

Components:
Nuclear Repulsion  :         3009.65967954 Eh           81897.00344 eV
Electronic Energy  :        -5062.24700084 Eh         -137750.74401 eV
One Electron Energy:        -8775.62357606 Eh         -238796.85770 eV
Two Electron Energy:         3713.37657521 Eh          101046.11370 eV

Virial components:
Potential Energy   :        -4094.78277938 Eh         -111424.70415 eV
Kinetic Energy     :         2042.19545808 Eh           55570.96359 eV
Virial Ratio       :            2.00508857


DFT components:
N(Alpha)           :      113.000000703077 electrons
N(Beta)            :      113.000000703077 electrons
N(Total)           :      226.000001406154 electrons
E(X)               :     -176.817744985402 Eh       
E(C)               :      -10.440632169170 Eh       
E(XC)              :     -187.258377154572 Eh       
DFET-embed. en.    :        0.000000000000 Eh       

---------------
SCF CONVERGENCE
---------------

  Last Energy change         ...    1.1482e-09  Tolerance :   1.0000e-08
  Last MAX-Density change    ...    3.6450e-02  Tolerance :   1.0000e-07
  Last RMS-Density change    ...    3.4212e-04  Tolerance :   5.0000e-09
  Last Orbital Gradient      ...    3.7607e-06  Tolerance :   1.0000e-05
  Last Orbital Rotation      ...    4.7124e-06  Tolerance :   1.0000e-05

             **** THE GBW FILE WAS UPDATED (x2-4-NO2-Ph-N2-OTf-v2-B3LYPG-aug-cc-pVDZ.gbw) ****
             **** DENSITY FILE WAS UPDATED (x2-4-NO2-Ph-N2-OTf-v2-B3LYPG-aug-cc-pVDZ.scfp.tmp) ****
             **** ENERGY FILE WAS UPDATED (x2-4-NO2-Ph-N2-OTf-v2-B3LYPG-aug-cc-pVDZ.en.tmp) ****
----------------
ORBITAL ENERGIES
----------------

  NO   OCC          E(Eh)            E(eV) 
   0   2.0000     -89.227776     -2428.0112 
   1   2.0000     -24.858884      -676.4446 
   2   2.0000     -24.857436      -676.4052 
   3   2.0000     -24.854153      -676.3159 
   4   2.0000     -19.306361      -525.3528 
   5   2.0000     -19.306278      -525.3505 
   6   2.0000     -19.303632      -525.2785 
   7   2.0000     -19.303558      -525.2765 
   8   2.0000     -19.245318      -523.6917 
   9   2.0000     -19.243755      -523.6492 
  10   2.0000     -19.243260      -523.6357 
  11   2.0000     -14.699662      -399.9981 
  12   2.0000     -14.694290      -399.8520 
  13   2.0000     -14.692503      -399.8033 
  14   2.0000     -14.679642      -399.4534 
  15   2.0000     -14.661405      -398.9571 
  16   2.0000     -14.651762      -398.6947 
  17   2.0000     -10.551265      -287.1145 
  18   2.0000     -10.451220      -284.3922 
  19   2.0000     -10.445677      -284.2413 
  20   2.0000     -10.412209      -283.3306 
  21   2.0000     -10.406906      -283.1863 
  22   2.0000     -10.390527      -282.7406 
  23   2.0000     -10.386767      -282.6383 
  24   2.0000     -10.381268      -282.4887 
  25   2.0000     -10.375672      -282.3364 
  26   2.0000     -10.370562      -282.1973 
  27   2.0000     -10.368730      -282.1475 
  28   2.0000     -10.367667      -282.1186 
  29   2.0000     -10.364486      -282.0320 
  30   2.0000      -8.255036      -224.6309 
  31   2.0000      -6.218394      -169.2111 
  32   2.0000      -6.218369      -169.2104 
  33   2.0000      -6.217733      -169.1931 
  34   2.0000      -1.435332       -39.0574 
  35   2.0000      -1.383653       -37.6511 
  36   2.0000      -1.356664       -36.9167 
  37   2.0000      -1.350085       -36.7377 
  38   2.0000      -1.349058       -36.7097 
  39   2.0000      -1.348143       -36.6848 
  40   2.0000      -1.336789       -36.3759 
  41   2.0000      -1.236716       -33.6528 
  42   2.0000      -1.199996       -32.6536 
  43   2.0000      -1.186993       -32.2997 
  44   2.0000      -1.105749       -30.0890 
  45   2.0000      -1.098476       -29.8910 
  46   2.0000      -1.087063       -29.5805 
  47   2.0000      -1.078873       -29.3576 
  48   2.0000      -1.020435       -27.7675 
  49   2.0000      -1.011735       -27.5307 
  50   2.0000      -0.941506       -25.6197 
  51   2.0000      -0.937471       -25.5099 
  52   2.0000      -0.925869       -25.1942 
  53   2.0000      -0.913198       -24.8494 
  54   2.0000      -0.847216       -23.0539 
  55   2.0000      -0.810302       -22.0494 
  56   2.0000      -0.805985       -21.9320 
  57   2.0000      -0.803427       -21.8624 
  58   2.0000      -0.800998       -21.7963 
  59   2.0000      -0.756594       -20.5880 
  60   2.0000      -0.742620       -20.2077 
  61   2.0000      -0.735849       -20.0235 
  62   2.0000      -0.712377       -19.3848 
  63   2.0000      -0.710443       -19.3321 
  64   2.0000      -0.700806       -19.0699 
  65   2.0000      -0.699403       -19.0317 
  66   2.0000      -0.692203       -18.8358 
  67   2.0000      -0.690951       -18.8017 
  68   2.0000      -0.689686       -18.7673 
  69   2.0000      -0.688835       -18.7441 
  70   2.0000      -0.677280       -18.4297 
  71   2.0000      -0.669318       -18.2131 
  72   2.0000      -0.663982       -18.0679 
  73   2.0000      -0.660758       -17.9801 
  74   2.0000      -0.653644       -17.7865 
  75   2.0000      -0.645186       -17.5564 
  76   2.0000      -0.640380       -17.4256 
  77   2.0000      -0.626770       -17.0553 
  78   2.0000      -0.621237       -16.9047 
  79   2.0000      -0.620538       -16.8857 
  80   2.0000      -0.614882       -16.7318 
  81   2.0000      -0.606746       -16.5104 
  82   2.0000      -0.605430       -16.4746 
  83   2.0000      -0.588917       -16.0253 
  84   2.0000      -0.587845       -15.9961 
  85   2.0000      -0.585158       -15.9230 
  86   2.0000      -0.581870       -15.8335 
  87   2.0000      -0.574367       -15.6293 
  88   2.0000      -0.567202       -15.4344 
  89   2.0000      -0.562362       -15.3027 
  90   2.0000      -0.553703       -15.0670 
  91   2.0000      -0.550117       -14.9695 
  92   2.0000      -0.548563       -14.9272 
  93   2.0000      -0.546295       -14.8655 
  94   2.0000      -0.530085       -14.4244 
  95   2.0000      -0.526881       -14.3372 
  96   2.0000      -0.525818       -14.3082 
  97   2.0000      -0.457150       -12.4397 
  98   2.0000      -0.454114       -12.3571 
  99   2.0000      -0.452872       -12.3233 
 100   2.0000      -0.448330       -12.1997 
 101   2.0000      -0.443699       -12.0737 
 102   2.0000      -0.442935       -12.0529 
 103   2.0000      -0.441116       -12.0034 
 104   2.0000      -0.434941       -11.8353 
 105   2.0000      -0.434204       -11.8153 
 106   2.0000      -0.431359       -11.7379 
 107   2.0000      -0.423449       -11.5226 
 108   2.0000      -0.421181       -11.4609 
 109   2.0000      -0.419518       -11.4157 
 110   2.0000      -0.418943       -11.4000 
 111   2.0000      -0.410609       -11.1732 
 112   2.0000      -0.385485       -10.4896 
 113   0.0000      -0.276256        -7.5173 
 114   0.0000      -0.269225        -7.3260 
 115   0.0000      -0.245058        -6.6684 
 116   0.0000      -0.234546        -6.3823 
 117   0.0000      -0.201760        -5.4902 
 118   0.0000      -0.201201        -5.4750 
 119   0.0000      -0.188177        -5.1206 
 120   0.0000      -0.185449        -5.0463 
 121   0.0000      -0.133386        -3.6296 
 122   0.0000      -0.132683        -3.6105 
 123   0.0000      -0.120079        -3.2675 
 124   0.0000      -0.116062        -3.1582 
 125   0.0000      -0.091523        -2.4905 
 126   0.0000      -0.087158        -2.3717 
 127   0.0000      -0.084466        -2.2984 
 128   0.0000      -0.082491        -2.2447 
 129   0.0000      -0.076702        -2.0872 
 130   0.0000      -0.071708        -1.9513 
 131   0.0000      -0.069641        -1.8950 
 132   0.0000      -0.063714        -1.7338 
 133   0.0000      -0.053340        -1.4515 
 134   0.0000      -0.050448        -1.3728 
 135   0.0000      -0.048868        -1.3298 
 136   0.0000      -0.043297        -1.1782 
 137   0.0000      -0.041804        -1.1375 
 138   0.0000      -0.037770        -1.0278 
 139   0.0000      -0.034034        -0.9261 
 140   0.0000      -0.031106        -0.8465 
 141   0.0000      -0.028830        -0.7845 
 142   0.0000      -0.025566        -0.6957 
 143   0.0000      -0.024025        -0.6537 
 144   0.0000      -0.021663        -0.5895 
 145   0.0000      -0.020762        -0.5650 
 146   0.0000      -0.018611        -0.5064 
 147   0.0000      -0.016794        -0.4570 
 148   0.0000      -0.016691        -0.4542 
 149   0.0000      -0.013071        -0.3557 
 150   0.0000      -0.009564        -0.2603 
 151   0.0000      -0.007910        -0.2152 
 152   0.0000      -0.004449        -0.1211 
 153   0.0000      -0.002580        -0.0702 
 154   0.0000       0.000288         0.0078 
 155   0.0000       0.002185         0.0595 
 156   0.0000       0.002598         0.0707 
 157   0.0000       0.005819         0.1583 
 158   0.0000       0.007869         0.2141 
 159   0.0000       0.010504         0.2858 
 160   0.0000       0.012393         0.3372 
 161   0.0000       0.015103         0.4110 
 162   0.0000       0.017741         0.4828 
 163   0.0000       0.018748         0.5102 
 164   0.0000       0.020940         0.5698 
 165   0.0000       0.023005         0.6260 
 166   0.0000       0.025177         0.6851 
 167   0.0000       0.026012         0.7078 
 168   0.0000       0.026613         0.7242 
 169   0.0000       0.030149         0.8204 
 170   0.0000       0.031740         0.8637 
 171   0.0000       0.035416         0.9637 
 172   0.0000       0.038283         1.0417 
 173   0.0000       0.038404         1.0450 
 174   0.0000       0.042041         1.1440 
 175   0.0000       0.045557         1.2397 
 176   0.0000       0.046484         1.2649 
 177   0.0000       0.050439         1.3725 
 178   0.0000       0.052791         1.4365 
 179   0.0000       0.054935         1.4949 
 180   0.0000       0.059009         1.6057 
 181   0.0000       0.064021         1.7421 
 182   0.0000       0.065956         1.7948 
 183   0.0000       0.067693         1.8420 
 184   0.0000       0.069154         1.8818 
 185   0.0000       0.070688         1.9235 
 186   0.0000       0.074261         2.0207 
 187   0.0000       0.076553         2.0831 
 188   0.0000       0.080677         2.1953 
 189   0.0000       0.082130         2.2349 
 190   0.0000       0.085312         2.3215 
 191   0.0000       0.086945         2.3659 
 192   0.0000       0.088686         2.4133 
 193   0.0000       0.091351         2.4858 
 194   0.0000       0.093870         2.5543 
 195   0.0000       0.096813         2.6344 
 196   0.0000       0.102380         2.7859 
 197   0.0000       0.107659         2.9295 
 198   0.0000       0.109778         2.9872 
 199   0.0000       0.110875         3.0171 
 200   0.0000       0.113674         3.0932 
 201   0.0000       0.114676         3.1205 
 202   0.0000       0.117416         3.1951 
 203   0.0000       0.121054         3.2940 
 204   0.0000       0.122677         3.3382 
 205   0.0000       0.123337         3.3562 
 206   0.0000       0.124663         3.3923 
 207   0.0000       0.126899         3.4531 
 208   0.0000       0.128273         3.4905 
 209   0.0000       0.129836         3.5330 
 210   0.0000       0.132889         3.6161 
 211   0.0000       0.136283         3.7084 
 212   0.0000       0.139135         3.7861 
 213   0.0000       0.139896         3.8068 
 214   0.0000       0.141197         3.8422 
 215   0.0000       0.143647         3.9088 
 216   0.0000       0.146992         3.9999 
 217   0.0000       0.149061         4.0561 
 218   0.0000       0.152042         4.1373 
 219   0.0000       0.154525         4.2048 
 220   0.0000       0.157947         4.2980 
 221   0.0000       0.158982         4.3261 
 222   0.0000       0.160213         4.3596 
 223   0.0000       0.162560         4.4235 
 224   0.0000       0.164858         4.4860 
 225   0.0000       0.165254         4.4968 
 226   0.0000       0.167766         4.5651 
 227   0.0000       0.169616         4.6155 
 228   0.0000       0.176206         4.7948 
 229   0.0000       0.176452         4.8015 
 230   0.0000       0.180767         4.9189 
 231   0.0000       0.181309         4.9337 
 232   0.0000       0.184394         5.0176 
 233   0.0000       0.185276         5.0416 
 234   0.0000       0.186036         5.0623 
 235   0.0000       0.187378         5.0988 
 236   0.0000       0.191148         5.2014 
 237   0.0000       0.192944         5.2503 
 238   0.0000       0.194774         5.3001 
 239   0.0000       0.195855         5.3295 
 240   0.0000       0.196693         5.3523 
 241   0.0000       0.200052         5.4437 
 242   0.0000       0.202115         5.4998 
 243   0.0000       0.203655         5.5417 
 244   0.0000       0.207086         5.6351 
 245   0.0000       0.207505         5.6465 
 246   0.0000       0.209587         5.7031 
 247   0.0000       0.210578         5.7301 
 248   0.0000       0.213158         5.8003 
 249   0.0000       0.214326         5.8321 
 250   0.0000       0.218309         5.9405 
 251   0.0000       0.222435         6.0528 
 252   0.0000       0.224221         6.1014 
 253   0.0000       0.227286         6.1848 
 254   0.0000       0.228654         6.2220 
 255   0.0000       0.231242         6.2924 
 256   0.0000       0.234204         6.3730 
 257   0.0000       0.237285         6.4568 
 258   0.0000       0.242376         6.5954 
 259   0.0000       0.242504         6.5989 
 260   0.0000       0.245885         6.6909 
 261   0.0000       0.248733         6.7684 
 262   0.0000       0.252396         6.8680 
 263   0.0000       0.255002         6.9389 
 264   0.0000       0.261134         7.1058 
 265   0.0000       0.262438         7.1413 
 266   0.0000       0.267075         7.2675 
 267   0.0000       0.269393         7.3305 
 268   0.0000       0.272025         7.4022 
 269   0.0000       0.273941         7.4543 
 270   0.0000       0.275570         7.4986 
 271   0.0000       0.278435         7.5766 
 272   0.0000       0.283039         7.7019 
 273   0.0000       0.284536         7.7426 
 274   0.0000       0.287521         7.8238 
 275   0.0000       0.292949         7.9716 
 276   0.0000       0.295490         8.0407 
 277   0.0000       0.298656         8.1268 
 278   0.0000       0.302133         8.2215 
 279   0.0000       0.305549         8.3144 
 280   0.0000       0.307154         8.3581 
 281   0.0000       0.309636         8.4256 
 282   0.0000       0.312430         8.5016 
 283   0.0000       0.315284         8.5793 
 284   0.0000       0.317756         8.6466 
 285   0.0000       0.320290         8.7155 
 286   0.0000       0.325301         8.8519 
 287   0.0000       0.325387         8.8542 
 288   0.0000       0.328041         8.9265 
 289   0.0000       0.331290         9.0149 
 290   0.0000       0.333334         9.0705 
 291   0.0000       0.335981         9.1425 
 292   0.0000       0.337745         9.1905 
 293   0.0000       0.347398         9.4532 
 294   0.0000       0.348945         9.4953 
 295   0.0000       0.355615         9.6768 
 296   0.0000       0.359646         9.7865 
 297   0.0000       0.361215         9.8292 
 298   0.0000       0.362585         9.8664 
 299   0.0000       0.366715         9.9788 
 300   0.0000       0.369017        10.0415 
 301   0.0000       0.375453        10.2166 
 302   0.0000       0.381111        10.3706 
 303   0.0000       0.383146        10.4259 
 304   0.0000       0.387863        10.5543 
 305   0.0000       0.393533        10.7086 
 306   0.0000       0.396114        10.7788 
 307   0.0000       0.399592        10.8734 
 308   0.0000       0.405144        11.0245 
 309   0.0000       0.407343        11.0844 
 310   0.0000       0.411652        11.2016 
 311   0.0000       0.415326        11.3016 
 312   0.0000       0.417195        11.3525 
 313   0.0000       0.418592        11.3905 
 314   0.0000       0.423064        11.5122 
 315   0.0000       0.426170        11.5967 
 316   0.0000       0.431848        11.7512 
 317   0.0000       0.438270        11.9259 
 318   0.0000       0.438863        11.9421 
 319   0.0000       0.444291        12.0898 
 320   0.0000       0.449063        12.2196 
 321   0.0000       0.453558        12.3419 
 322   0.0000       0.454068        12.3558 
 323   0.0000       0.456620        12.4253 
 324   0.0000       0.460876        12.5411 
 325   0.0000       0.463039        12.5999 
 326   0.0000       0.467001        12.7078 
 327   0.0000       0.469518        12.7762 
 328   0.0000       0.476035        12.9536 
 329   0.0000       0.478888        13.0312 
 330   0.0000       0.479905        13.0589 
 331   0.0000       0.485052        13.1989 
 332   0.0000       0.492474        13.4009 
 333   0.0000       0.494891        13.4667 
 334   0.0000       0.495621        13.4865 
 335   0.0000       0.497939        13.5496 
 336   0.0000       0.500366        13.6157 
 337   0.0000       0.503451        13.6996 
 338   0.0000       0.506553        13.7840 
 339   0.0000       0.508792        13.8449 
 340   0.0000       0.516181        14.0460 
 341   0.0000       0.518844        14.1185 
 342   0.0000       0.519790        14.1442 
 343   0.0000       0.526690        14.3320 
 344   0.0000       0.527318        14.3491 
 345   0.0000       0.531597        14.4655 
 346   0.0000       0.537765        14.6333 
 347   0.0000       0.541963        14.7476 
 348   0.0000       0.544064        14.8047 
 349   0.0000       0.547362        14.8945 
 350   0.0000       0.547970        14.9110 
 351   0.0000       0.550054        14.9677 
 352   0.0000       0.557177        15.1616 
 353   0.0000       0.560999        15.2656 
 354   0.0000       0.574196        15.6247 
 355   0.0000       0.575681        15.6651 
 356   0.0000       0.579870        15.7791 
 357   0.0000       0.581451        15.8221 
 358   0.0000       0.584036        15.8924 
 359   0.0000       0.586829        15.9684 
 360   0.0000       0.590071        16.0566 
 361   0.0000       0.591969        16.1083 
 362   0.0000       0.595227        16.1970 
 363   0.0000       0.596099        16.2207 
 364   0.0000       0.599729        16.3195 
 365   0.0000       0.602416        16.3926 
 366   0.0000       0.604929        16.4609 
 367   0.0000       0.613837        16.7034 
 368   0.0000       0.616851        16.7854 
 369   0.0000       0.618407        16.8277 
 370   0.0000       0.619863        16.8673 
 371   0.0000       0.623221        16.9587 
 372   0.0000       0.625573        17.0227 
 373   0.0000       0.627661        17.0795 
 374   0.0000       0.628810        17.1108 
 375   0.0000       0.632858        17.2209 
 376   0.0000       0.635138        17.2830 
 377   0.0000       0.644372        17.5342 
 378   0.0000       0.649312        17.6687 
 379   0.0000       0.651160        17.7190 
 380   0.0000       0.656012        17.8510 
 381   0.0000       0.660438        17.9714 
 382   0.0000       0.662233        18.0203 
 383   0.0000       0.672068        18.2879 
 384   0.0000       0.675932        18.3930 
 385   0.0000       0.676732        18.4148 
 386   0.0000       0.680162        18.5081 
 387   0.0000       0.690521        18.7900 
 388   0.0000       0.695257        18.9189 
 389   0.0000       0.701127        19.0786 
 390   0.0000       0.705066        19.1858 
 391   0.0000       0.709543        19.3076 
 392   0.0000       0.715448        19.4683 
 393   0.0000       0.717229        19.5168 
 394   0.0000       0.720584        19.6081 
 395   0.0000       0.725601        19.7446 
 396   0.0000       0.735952        20.0263 
 397   0.0000       0.738338        20.0912 
 398   0.0000       0.741789        20.1851 
 399   0.0000       0.746344        20.3091 
 400   0.0000       0.752321        20.4717 
 401   0.0000       0.757159        20.6033 
 402   0.0000       0.763170        20.7669 
 403   0.0000       0.766702        20.8630 
 404   0.0000       0.767990        20.8981 
 405   0.0000       0.769864        20.9491 
 406   0.0000       0.778829        21.1930 
 407   0.0000       0.783186        21.3116 
 408   0.0000       0.787784        21.4367 
 409   0.0000       0.794266        21.6131 
 410   0.0000       0.796497        21.6738 
 411   0.0000       0.801417        21.8077 
 412   0.0000       0.806329        21.9413 
 413   0.0000       0.810815        22.0634 
 414   0.0000       0.812530        22.1101 
 415   0.0000       0.821722        22.3602 
 416   0.0000       0.825990        22.4763 
 417   0.0000       0.834677        22.7127 
 418   0.0000       0.841508        22.8986 
 419   0.0000       0.847858        23.0714 
 420   0.0000       0.855337        23.2749 
 421   0.0000       0.861034        23.4299 
 422   0.0000       0.862283        23.4639 
 423   0.0000       0.864846        23.5337 
 424   0.0000       0.882015        24.0008 
 425   0.0000       0.886390        24.1199 
 426   0.0000       0.889617        24.2077 
 427   0.0000       0.903615        24.5886 
 428   0.0000       0.912482        24.8299 
 429   0.0000       0.916645        24.9432 
 430   0.0000       0.918306        24.9884 
 431   0.0000       0.929047        25.2806 
 432   0.0000       0.933891        25.4125 
 433   0.0000       0.935760        25.4633 
 434   0.0000       0.939777        25.5726 
 435   0.0000       0.949327        25.8325 
 436   0.0000       0.952472        25.9181 
 437   0.0000       0.957130        26.0448 
 438   0.0000       0.959991        26.1227 
 439   0.0000       0.960232        26.1292 
 440   0.0000       0.961587        26.1661 
 441   0.0000       0.967093        26.3159 
 442   0.0000       0.969788        26.3893 
 443   0.0000       0.974916        26.5288 
 444   0.0000       0.978719        26.6323 
 445   0.0000       0.987093        26.8602 
 446   0.0000       0.994722        27.0678 
 447   0.0000       1.000688        27.2301 
 448   0.0000       1.005073        27.3494 
 449   0.0000       1.008890        27.4533 
 450   0.0000       1.013996        27.5922 
 451   0.0000       1.018801        27.7230 
 452   0.0000       1.020180        27.7605 
 453   0.0000       1.031560        28.0702 
 454   0.0000       1.040352        28.3094 
 455   0.0000       1.044498        28.4222 
 456   0.0000       1.055003        28.7081 
 457   0.0000       1.063490        28.9390 
 458   0.0000       1.067964        29.0608 
 459   0.0000       1.072988        29.1975 
 460   0.0000       1.078476        29.3468 
 461   0.0000       1.080898        29.4127 
 462   0.0000       1.086160        29.5559 
 463   0.0000       1.089228        29.6394 
 464   0.0000       1.099603        29.9217 
 465   0.0000       1.101735        29.9797 
 466   0.0000       1.109853        30.2006 
 467   0.0000       1.113310        30.2947 
 468   0.0000       1.116619        30.3848 
 469   0.0000       1.122092        30.5337 
 470   0.0000       1.124672        30.6039 
 471   0.0000       1.129598        30.7379 
 472   0.0000       1.136926        30.9373 
 473   0.0000       1.138582        30.9824 
 474   0.0000       1.142034        31.0763 
 475   0.0000       1.152063        31.3492 
 476   0.0000       1.153608        31.3913 
 477   0.0000       1.161882        31.6164 
 478   0.0000       1.169366        31.8201 
 479   0.0000       1.171496        31.8780 
 480   0.0000       1.176153        32.0047 
 481   0.0000       1.180870        32.1331 
 482   0.0000       1.182750        32.1843 
 483   0.0000       1.189965        32.3806 
 484   0.0000       1.191764        32.4296 
 485   0.0000       1.198261        32.6063 
 486   0.0000       1.200524        32.6679 
 487   0.0000       1.207672        32.8624 
 488   0.0000       1.210392        32.9364 
 489   0.0000       1.211473        32.9659 
 490   0.0000       1.215675        33.0802 
 491   0.0000       1.219596        33.1869 
 492   0.0000       1.225027        33.3347 
 493   0.0000       1.226450        33.3734 
 494   0.0000       1.231856        33.5205 
 495   0.0000       1.237217        33.6664 
 496   0.0000       1.240487        33.7554 
 497   0.0000       1.246336        33.9145 
 498   0.0000       1.247999        33.9598 
 499   0.0000       1.252943        34.0943 
 500   0.0000       1.254066        34.1249 
 501   0.0000       1.258098        34.2346 
 502   0.0000       1.267088        34.4792 
 503   0.0000       1.272227        34.6190 
 504   0.0000       1.275380        34.7049 
 505   0.0000       1.280906        34.8552 
 506   0.0000       1.283736        34.9322 
 507   0.0000       1.288969        35.0746 
 508   0.0000       1.292203        35.1626 
 509   0.0000       1.298675        35.3387 
 510   0.0000       1.301765        35.4228 
 511   0.0000       1.307710        35.5846 
 512   0.0000       1.311279        35.6817 
 513   0.0000       1.313979        35.7552 
 514   0.0000       1.316646        35.8278 
 515   0.0000       1.317089        35.8398 
 516   0.0000       1.321969        35.9726 
 517   0.0000       1.328860        36.1601 
 518   0.0000       1.338418        36.4202 
 519   0.0000       1.342558        36.5328 
 520   0.0000       1.347190        36.6589 
 521   0.0000       1.357386        36.9363 
 522   0.0000       1.360418        37.0188 
 523   0.0000       1.365943        37.1692 
 524   0.0000       1.372354        37.3436 
 525   0.0000       1.376310        37.4513 
 526   0.0000       1.378215        37.5031 
 527   0.0000       1.385553        37.7028 
 528   0.0000       1.388691        37.7882 
 529   0.0000       1.393519        37.9196 
 530   0.0000       1.401686        38.1418 
 531   0.0000       1.404126        38.2082 
 532   0.0000       1.408036        38.3146 
 533   0.0000       1.411536        38.4099 
 534   0.0000       1.413601        38.4660 
 535   0.0000       1.420617        38.6569 
 536   0.0000       1.434724        39.0408 
 537   0.0000       1.437158        39.1071 
 538   0.0000       1.446804        39.3695 
 539   0.0000       1.448224        39.4082 
 540   0.0000       1.461285        39.7636 
 541   0.0000       1.467870        39.9428 
 542   0.0000       1.470121        40.0040 
 543   0.0000       1.473186        40.0874 
 544   0.0000       1.480961        40.2990 
 545   0.0000       1.490818        40.5672 
 546   0.0000       1.502078        40.8736 
 547   0.0000       1.503281        40.9064 
 548   0.0000       1.505065        40.9549 
 549   0.0000       1.508756        41.0553 
 550   0.0000       1.511864        41.1399 
 551   0.0000       1.518981        41.3336 
 552   0.0000       1.528967        41.6053 
 553   0.0000       1.534591        41.7583 
 554   0.0000       1.541659        41.9507 
 555   0.0000       1.542984        41.9867 
 556   0.0000       1.555759        42.3344 
 557   0.0000       1.563417        42.5427 
 558   0.0000       1.567362        42.6501 
 559   0.0000       1.574396        42.8415 
 560   0.0000       1.578362        42.9494 
 561   0.0000       1.582059        43.0500 
 562   0.0000       1.589649        43.2566 
 563   0.0000       1.601656        43.5833 
 564   0.0000       1.603940        43.6454 
 565   0.0000       1.608710        43.7752 
 566   0.0000       1.612407        43.8758 
 567   0.0000       1.616002        43.9737 
 568   0.0000       1.626367        44.2557 
 569   0.0000       1.627948        44.2987 
 570   0.0000       1.634451        44.4757 
 571   0.0000       1.643008        44.7085 
 572   0.0000       1.651620        44.9429 
 573   0.0000       1.657635        45.1065 
 574   0.0000       1.661812        45.2202 
 575   0.0000       1.667185        45.3664 
 576   0.0000       1.672661        45.5154 
 577   0.0000       1.677346        45.6429 
 578   0.0000       1.685504        45.8649 
 579   0.0000       1.688632        45.9500 
 580   0.0000       1.701250        46.2934 
 581   0.0000       1.708360        46.4868 
 582   0.0000       1.715698        46.6865 
 583   0.0000       1.728107        47.0242 
 584   0.0000       1.731967        47.1292 
 585   0.0000       1.739462        47.3332 
 586   0.0000       1.743372        47.4396 
 587   0.0000       1.748362        47.5754 
 588   0.0000       1.754889        47.7529 
 589   0.0000       1.758674        47.8560 
 590   0.0000       1.763090        47.9761 
 591   0.0000       1.775522        48.3144 
 592   0.0000       1.785329        48.5813 
 593   0.0000       1.789298        48.6893 
 594   0.0000       1.793892        48.8143 
 595   0.0000       1.797464        48.9115 
 596   0.0000       1.807224        49.1771 
 597   0.0000       1.812319        49.3157 
 598   0.0000       1.821654        49.5697 
 599   0.0000       1.824055        49.6351 
 600   0.0000       1.824875        49.6574 
 601   0.0000       1.847438        50.2714 
 602   0.0000       1.865865        50.7728 
 603   0.0000       1.872450        50.9520 
 604   0.0000       1.877420        51.0872 
 605   0.0000       1.883340        51.2483 
 606   0.0000       1.884964        51.2925 
 607   0.0000       1.890188        51.4346 
 608   0.0000       1.893371        51.5212 
 609   0.0000       1.894968        51.5647 
 610   0.0000       1.922098        52.3029 
 611   0.0000       1.925114        52.3850 
 612   0.0000       1.932191        52.5776 
 613   0.0000       1.933200        52.6050 
 614   0.0000       1.945743        52.9464 
 615   0.0000       1.955048        53.1995 
 616   0.0000       1.956811        53.2475 
 617   0.0000       1.965242        53.4770 
 618   0.0000       1.973633        53.7053 
 619   0.0000       1.976240        53.7762 
 620   0.0000       1.989466        54.1361 
 621   0.0000       1.996676        54.3323 
 622   0.0000       2.004896        54.5560 
 623   0.0000       2.011657        54.7400 
 624   0.0000       2.016425        54.8697 
 625   0.0000       2.021791        55.0157 
 626   0.0000       2.026895        55.1546 
 627   0.0000       2.041175        55.5432 
 628   0.0000       2.051403        55.8215 
 629   0.0000       2.065341        56.2008 
 630   0.0000       2.067233        56.2523 
 631   0.0000       2.067700        56.2650 
 632   0.0000       2.077843        56.5410 
 633   0.0000       2.087203        56.7957 
 634   0.0000       2.110532        57.4305 
 635   0.0000       2.117206        57.6121 
 636   0.0000       2.118488        57.6470 
 637   0.0000       2.142429        58.2984 
 638   0.0000       2.146730        58.4155 
 639   0.0000       2.154290        58.6212 
 640   0.0000       2.157652        58.7127 
 641   0.0000       2.161972        58.8303 
 642   0.0000       2.167242        58.9736 
 643   0.0000       2.171489        59.0892 
 644   0.0000       2.179985        59.3204 
 645   0.0000       2.193152        59.6787 
 646   0.0000       2.205819        60.0234 
[...]


Note: Rotational entropy computed according to Herzberg 
Infrared and Raman Spectra, Chapter V,1, Van Nostrand Reinhold, 1945 
Point Group:  C1, Symmetry Number:   1  
Rotational constants in cm-1:     0.008399     0.001620     0.001537 

Vibrational entropy computed according to the QRRHO of S. Grimme
Chem.Eur.J. 2012 18 9955


-------
ENTROPY
-------

The entropy contributions are T*S = T*(S(el)+S(vib)+S(rot)+S(trans))
     S(el)   - electronic entropy
     S(vib)  - vibrational entropy
     S(rot)  - rotational entropy
     S(trans)- translational entropy
The entropies will be listed as mutliplied by the temperature to get
units of energy

Electronic entropy                ...      0.00000000 Eh      0.00 kcal/mol
Vibrational entropy               ...      0.13586193 Eh     85.25 kcal/mol
Rotational entropy                ...      0.03273339 Eh     20.54 kcal/mol
Translational entropy             ...      0.03917514 Eh     24.58 kcal/mol
-----------------------------------------------------------------------
Final entropy term                ...      0.20777046 Eh    130.38 kcal/mol


-------------------
GIBBS FREE ENTHALPY
-------------------

The Gibbs free enthalpy is G = H - T*S

Total enthalpy                    ...  -2052.29116425 Eh 
Total entropy correction          ...     -0.20777046 Eh   -130.38 kcal/mol
-----------------------------------------------------------------------
Final Gibbs free enthalpy         ...  -2052.49893471 Eh

For completeness - the Gibbs free enthalpy minus the electronic energy
G-E(el)                           ...      0.09651128 Eh     60.56 kcal/mol


The first frequency considered to be a vibration is 6
The total number of vibrations considered is 108


--------------------------
THERMOCHEMISTRY AT 573.15K
--------------------------

Temperature         ... 573.15 K
Pressure            ... 1.00 atm
Total Mass          ... 449.30 AMU

Throughout the following assumptions are being made:
  (1) The electronic state is orbitally nondegenerate
  (2) There are no thermally accessible electronically excited states
  (3) Hindered rotations indicated by low frequency modes are not
      treated as such but are treated as vibrations and this may
      cause some error
  (4) All equations used are the standard statistical mechanics
      equations for an ideal gas
  (5) All vibrations are strictly harmonic

freq.       3.98  E(vib)   ...       1.13 
freq.      10.53  E(vib)   ...       1.12 
freq.      14.52  E(vib)   ...       1.12 
freq.      17.17  E(vib)   ...       1.11 
freq.      22.53  E(vib)   ...       1.11 
freq.      33.07  E(vib)   ...       1.09 
freq.      36.33  E(vib)   ...       1.09 
freq.      39.63  E(vib)   ...       1.08 
freq.      50.10  E(vib)   ...       1.07 
freq.      55.54  E(vib)   ...       1.06 
freq.      60.50  E(vib)   ...       1.05 
freq.      66.43  E(vib)   ...       1.05 
freq.      82.96  E(vib)   ...       1.02 
freq.      84.31  E(vib)   ...       1.02 
freq.      85.46  E(vib)   ...       1.02 
freq.     103.32  E(vib)   ...       1.00 
freq.     109.87  E(vib)   ...       0.99 
freq.     152.42  E(vib)   ...       0.93 
freq.     184.68  E(vib)   ...       0.90 
freq.     193.15  E(vib)   ...       0.89 
freq.     194.43  E(vib)   ...       0.88 
freq.     226.06  E(vib)   ...       0.85 
freq.     226.29  E(vib)   ...       0.85 
freq.     254.71  E(vib)   ...       0.81 
freq.     263.04  E(vib)   ...       0.80 
freq.     281.15  E(vib)   ...       0.78 
freq.     317.32  E(vib)   ...       0.74 
freq.     327.48  E(vib)   ...       0.73 
freq.     328.56  E(vib)   ...       0.73 
freq.     329.08  E(vib)   ...       0.73 
freq.     409.87  E(vib)   ...       0.65 
freq.     410.73  E(vib)   ...       0.65 
freq.     433.11  E(vib)   ...       0.63 
freq.     436.29  E(vib)   ...       0.63 
freq.     470.46  E(vib)   ...       0.60 
freq.     483.14  E(vib)   ...       0.58 
freq.     488.78  E(vib)   ...       0.58 
freq.     495.45  E(vib)   ...       0.57 
freq.     539.55  E(vib)   ...       0.54 
freq.     542.88  E(vib)   ...       0.53 
freq.     545.27  E(vib)   ...       0.53 
freq.     546.95  E(vib)   ...       0.53 
freq.     547.84  E(vib)   ...       0.53 
freq.     552.50  E(vib)   ...       0.53 
freq.     568.93  E(vib)   ...       0.51 
freq.     570.83  E(vib)   ...       0.51 
freq.     587.80  E(vib)   ...       0.50 
freq.     640.97  E(vib)   ...       0.46 
freq.     641.74  E(vib)   ...       0.46 
freq.     676.77  E(vib)   ...       0.43 
freq.     677.66  E(vib)   ...       0.43 
freq.     736.02  E(vib)   ...       0.39 
freq.     767.26  E(vib)   ...       0.37 
freq.     767.39  E(vib)   ...       0.37 
freq.     771.94  E(vib)   ...       0.37 
freq.     772.87  E(vib)   ...       0.37 
freq.     839.82  E(vib)   ...       0.33 
freq.     845.39  E(vib)   ...       0.33 
freq.     863.29  E(vib)   ...       0.32 
freq.     864.42  E(vib)   ...       0.32 
freq.     902.70  E(vib)   ...       0.30 
freq.     912.80  E(vib)   ...       0.29 
freq.     946.71  E(vib)   ...       0.28 
freq.    1002.96  E(vib)   ...       0.25 
freq.    1003.60  E(vib)   ...       0.25 
freq.    1012.24  E(vib)   ...       0.25 
freq.    1019.15  E(vib)   ...       0.24 
freq.    1033.11  E(vib)   ...       0.24 
freq.    1040.11  E(vib)   ...       0.24 
freq.    1100.35  E(vib)   ...       0.21 
freq.    1101.69  E(vib)   ...       0.21 
freq.    1108.64  E(vib)   ...       0.21 
freq.    1115.57  E(vib)   ...       0.21 
freq.    1121.31  E(vib)   ...       0.20 
freq.    1122.19  E(vib)   ...       0.20 
freq.    1133.73  E(vib)   ...       0.20 
freq.    1145.19  E(vib)   ...       0.20 
freq.    1156.07  E(vib)   ...       0.19 
freq.    1178.73  E(vib)   ...       0.18 
freq.    1188.21  E(vib)   ...       0.18 
freq.    1193.45  E(vib)   ...       0.18 
freq.    1196.41  E(vib)   ...       0.18 
freq.    1305.61  E(vib)   ...       0.15 
freq.    1308.38  E(vib)   ...       0.15 
freq.    1374.13  E(vib)   ...       0.13 
freq.    1375.07  E(vib)   ...       0.13 
freq.    1379.65  E(vib)   ...       0.13 
freq.    1379.83  E(vib)   ...       0.13 
freq.    1434.51  E(vib)   ...       0.12 
freq.    1438.14  E(vib)   ...       0.11 
freq.    1475.09  E(vib)   ...       0.11 
freq.    1478.70  E(vib)   ...       0.11 
freq.    1602.92  E(vib)   ...       0.08 
freq.    1603.59  E(vib)   ...       0.08 
freq.    1614.27  E(vib)   ...       0.08 
freq.    1616.44  E(vib)   ...       0.08 
freq.    1652.92  E(vib)   ...       0.08 
freq.    1653.28  E(vib)   ...       0.08 
freq.    2341.52  E(vib)   ...       0.02 
freq.    2369.49  E(vib)   ...       0.02 
freq.    3197.72  E(vib)   ...       0.00 
freq.    3206.08  E(vib)   ...       0.00 
freq.    3216.19  E(vib)   ...       0.00 
freq.    3216.92  E(vib)   ...       0.00 
freq.    3235.53  E(vib)   ...       0.00 
freq.    3235.69  E(vib)   ...       0.00 
freq.    3237.37  E(vib)   ...       0.00 
freq.    3238.64  E(vib)   ...       0.00 

------------
INNER ENERGY
------------

The inner energy is: U= E(el) + E(ZPE) + E(vib) + E(rot) + E(trans)
    E(el)   - is the total energy from the electronic structure calculation
              = E(kin-el) + E(nuc-el) + E(el-el) + E(nuc-nuc)
    E(ZPE)  - the the zero temperature vibrational energy from the frequency calculation
    E(vib)  - the the finite temperature correction to E(ZPE) due to population
              of excited vibrational states
    E(rot)  - is the rotational thermal energy
    E(trans)- is the translational thermal energy

Summary of contributions to the inner energy U:
Electronic energy                ...  -2052.59544600 Eh
Zero point energy                ...      0.22912241 Eh     143.78 kcal/mol
Thermal vibrational correction   ...      0.07974498 Eh      50.04 kcal/mol
Thermal rotational correction    ...      0.00272258 Eh       1.71 kcal/mol
Thermal translational correction ...      0.00272258 Eh       1.71 kcal/mol
-----------------------------------------------------------------------
Total thermal energy                  -2052.28113346 Eh


Summary of corrections to the electronic energy:
(perhaps to be used in another calculation)
Total thermal correction                  0.08519013 Eh      53.46 kcal/mol
Non-thermal (ZPE) correction              0.22912241 Eh     143.78 kcal/mol
-----------------------------------------------------------------------
Total correction                          0.31431254 Eh     197.23 kcal/mol


--------
ENTHALPY
--------

The enthalpy is H = U + kB*T
                kB is Boltzmann's constant
Total free energy                 ...  -2052.28113346 Eh 
Thermal Enthalpy correction       ...      0.00181510 Eh       1.14 kcal/mol
-----------------------------------------------------------------------
Total Enthalpy                    ...  -2052.27931835 Eh


Note: Rotational entropy computed according to Herzberg 
Infrared and Raman Spectra, Chapter V,1, Van Nostrand Reinhold, 1945 
Point Group:  C1, Symmetry Number:   1  
Rotational constants in cm-1:     0.008399     0.001620     0.001537 

Vibrational entropy computed according to the QRRHO of S. Grimme
Chem.Eur.J. 2012 18 9955


-------
ENTROPY
-------

The entropy contributions are T*S = T*(S(el)+S(vib)+S(rot)+S(trans))
     S(el)   - electronic entropy
     S(vib)  - vibrational entropy
     S(rot)  - rotational entropy
     S(trans)- translational entropy
The entropies will be listed as mutliplied by the temperature to get
units of energy

Electronic entropy                ...      0.00000000 Eh      0.00 kcal/mol
Vibrational entropy               ...      0.15934239 Eh     99.99 kcal/mol
Rotational entropy                ...      0.03611039 Eh     22.66 kcal/mol
Translational entropy             ...      0.04333349 Eh     27.19 kcal/mol
-----------------------------------------------------------------------
Final entropy term                ...      0.23878627 Eh    149.84 kcal/mol


-------------------
GIBBS FREE ENTHALPY
-------------------

The Gibbs free enthalpy is G = H - T*S

Total enthalpy                    ...  -2052.27931835 Eh 
Total entropy correction          ...     -0.23878627 Eh   -149.84 kcal/mol
-----------------------------------------------------------------------
Final Gibbs free enthalpy         ...  -2052.51810462 Eh

For completeness - the Gibbs free enthalpy minus the electronic energy
G-E(el)                           ...      0.07734138 Eh     48.53 kcal/mol


The first frequency considered to be a vibration is 6
The total number of vibrations considered is 108


--------------------------
THERMOCHEMISTRY AT 623.15K
--------------------------

Temperature         ... 623.15 K
Pressure            ... 1.00 atm
Total Mass          ... 449.30 AMU

Throughout the following assumptions are being made:
  (1) The electronic state is orbitally nondegenerate
  (2) There are no thermally accessible electronically excited states
  (3) Hindered rotations indicated by low frequency modes are not
      treated as such but are treated as vibrations and this may
      cause some error
  (4) All equations used are the standard statistical mechanics
      equations for an ideal gas
  (5) All vibrations are strictly harmonic

freq.       3.98  E(vib)   ...       1.23 
freq.      10.53  E(vib)   ...       1.22 
freq.      14.52  E(vib)   ...       1.22 
freq.      17.17  E(vib)   ...       1.21 
freq.      22.53  E(vib)   ...       1.21 
freq.      33.07  E(vib)   ...       1.19 
freq.      36.33  E(vib)   ...       1.19 
freq.      39.63  E(vib)   ...       1.18 
freq.      50.10  E(vib)   ...       1.17 
freq.      55.54  E(vib)   ...       1.16 
freq.      60.50  E(vib)   ...       1.15 
freq.      66.43  E(vib)   ...       1.15 
freq.      82.96  E(vib)   ...       1.12 
freq.      84.31  E(vib)   ...       1.12 
freq.      85.46  E(vib)   ...       1.12 
freq.     103.32  E(vib)   ...       1.10 
freq.     109.87  E(vib)   ...       1.09 
freq.     152.42  E(vib)   ...       1.03 
freq.     184.68  E(vib)   ...       0.99 
freq.     193.15  E(vib)   ...       0.98 
freq.     194.43  E(vib)   ...       0.98 
freq.     226.06  E(vib)   ...       0.94 
freq.     226.29  E(vib)   ...       0.94 
freq.     254.71  E(vib)   ...       0.91 
freq.     263.04  E(vib)   ...       0.90 
freq.     281.15  E(vib)   ...       0.88 
freq.     317.32  E(vib)   ...       0.84 
freq.     327.48  E(vib)   ...       0.83 
freq.     328.56  E(vib)   ...       0.83 
freq.     329.08  E(vib)   ...       0.83 
freq.     409.87  E(vib)   ...       0.74 
freq.     410.73  E(vib)   ...       0.74 
freq.     433.11  E(vib)   ...       0.72 
freq.     436.29  E(vib)   ...       0.72 
freq.     470.46  E(vib)   ...       0.69 
freq.     483.14  E(vib)   ...       0.67 
freq.     488.78  E(vib)   ...       0.67 
freq.     495.45  E(vib)   ...       0.66 
freq.     539.55  E(vib)   ...       0.62 
freq.     542.88  E(vib)   ...       0.62 
freq.     545.27  E(vib)   ...       0.62 
freq.     546.95  E(vib)   ...       0.62 
freq.     547.84  E(vib)   ...       0.62 
freq.     552.50  E(vib)   ...       0.61 
freq.     568.93  E(vib)   ...       0.60 
freq.     570.83  E(vib)   ...       0.60 
freq.     587.80  E(vib)   ...       0.58 
freq.     640.97  E(vib)   ...       0.54 
freq.     641.74  E(vib)   ...       0.54 
freq.     676.77  E(vib)   ...       0.51 
freq.     677.66  E(vib)   ...       0.51 
freq.     736.02  E(vib)   ...       0.47 
freq.     767.26  E(vib)   ...       0.45 
freq.     767.39  E(vib)   ...       0.45 
freq.     771.94  E(vib)   ...       0.45 
freq.     772.87  E(vib)   ...       0.45 
freq.     839.82  E(vib)   ...       0.40 
freq.     845.39  E(vib)   ...       0.40 
freq.     863.29  E(vib)   ...       0.39 
freq.     864.42  E(vib)   ...       0.39 
freq.     902.70  E(vib)   ...       0.37 
freq.     912.80  E(vib)   ...       0.36 
freq.     946.71  E(vib)   ...       0.34 
freq.    1002.96  E(vib)   ...       0.31 
freq.    1003.60  E(vib)   ...       0.31 
freq.    1012.24  E(vib)   ...       0.31 
freq.    1019.15  E(vib)   ...       0.31 
freq.    1033.11  E(vib)   ...       0.30 
freq.    1040.11  E(vib)   ...       0.30 
freq.    1100.35  E(vib)   ...       0.27 
freq.    1101.69  E(vib)   ...       0.27 
freq.    1108.64  E(vib)   ...       0.27 
freq.    1115.57  E(vib)   ...       0.26 
freq.    1121.31  E(vib)   ...       0.26 
freq.    1122.19  E(vib)   ...       0.26 
freq.    1133.73  E(vib)   ...       0.26 
freq.    1145.19  E(vib)   ...       0.25 
freq.    1156.07  E(vib)   ...       0.25 
freq.    1178.73  E(vib)   ...       0.24 
freq.    1188.21  E(vib)   ...       0.23 
freq.    1193.45  E(vib)   ...       0.23 
freq.    1196.41  E(vib)   ...       0.23 
freq.    1305.61  E(vib)   ...       0.19 
freq.    1308.38  E(vib)   ...       0.19 
freq.    1374.13  E(vib)   ...       0.17 
freq.    1375.07  E(vib)   ...       0.17 
freq.    1379.65  E(vib)   ...       0.17 
freq.    1379.83  E(vib)   ...       0.17 
freq.    1434.51  E(vib)   ...       0.16 
freq.    1438.14  E(vib)   ...       0.15 
freq.    1475.09  E(vib)   ...       0.14 
freq.    1478.70  E(vib)   ...       0.14 
freq.    1602.92  E(vib)   ...       0.12 
freq.    1603.59  E(vib)   ...       0.12 
freq.    1614.27  E(vib)   ...       0.11 
freq.    1616.44  E(vib)   ...       0.11 
freq.    1652.92  E(vib)   ...       0.11 
freq.    1653.28  E(vib)   ...       0.11 
freq.    2341.52  E(vib)   ...       0.03 
freq.    2369.49  E(vib)   ...       0.03 
freq.    3197.72  E(vib)   ...       0.01 
freq.    3206.08  E(vib)   ...       0.01 
freq.    3216.19  E(vib)   ...       0.01 
freq.    3216.92  E(vib)   ...       0.01 
freq.    3235.53  E(vib)   ...       0.01 
freq.    3235.69  E(vib)   ...       0.01 
freq.    3237.37  E(vib)   ...       0.01 
freq.    3238.64  E(vib)   ...       0.01 

------------
INNER ENERGY
------------

The inner energy is: U= E(el) + E(ZPE) + E(vib) + E(rot) + E(trans)
    E(el)   - is the total energy from the electronic structure calculation
              = E(kin-el) + E(nuc-el) + E(el-el) + E(nuc-nuc)
    E(ZPE)  - the the zero temperature vibrational energy from the frequency calculation
    E(vib)  - the the finite temperature correction to E(ZPE) due to population
              of excited vibrational states
    E(rot)  - is the rotational thermal energy
    E(trans)- is the translational thermal energy

Summary of contributions to the inner energy U:
Electronic energy                ...  -2052.59544600 Eh
Zero point energy                ...      0.22912241 Eh     143.78 kcal/mol
Thermal vibrational correction   ...      0.09145751 Eh      57.39 kcal/mol
Thermal rotational correction    ...      0.00296009 Eh       1.86 kcal/mol
Thermal translational correction ...      0.00296009 Eh       1.86 kcal/mol
-----------------------------------------------------------------------
Total thermal energy                  -2052.26894591 Eh


Summary of corrections to the electronic energy:
(perhaps to be used in another calculation)
Total thermal correction                  0.09737768 Eh      61.11 kcal/mol
Non-thermal (ZPE) correction              0.22912241 Eh     143.78 kcal/mol
-----------------------------------------------------------------------
Total correction                          0.32650009 Eh     204.88 kcal/mol


--------
ENTHALPY
--------

The enthalpy is H = U + kB*T
                kB is Boltzmann's constant
Total free energy                 ...  -2052.26894591 Eh 
Thermal Enthalpy correction       ...      0.00197345 Eh       1.24 kcal/mol
-----------------------------------------------------------------------
Total Enthalpy                    ...  -2052.26697246 Eh


Note: Rotational entropy computed according to Herzberg 
Infrared and Raman Spectra, Chapter V,1, Van Nostrand Reinhold, 1945 
Point Group:  C1, Symmetry Number:   1  
Rotational constants in cm-1:     0.008399     0.001620     0.001537 

Vibrational entropy computed according to the QRRHO of S. Grimme
Chem.Eur.J. 2012 18 9955


-------
ENTROPY
-------

The entropy contributions are T*S = T*(S(el)+S(vib)+S(rot)+S(trans))
     S(el)   - electronic entropy
     S(vib)  - vibrational entropy
     S(rot)  - rotational entropy
     S(trans)- translational entropy
The entropies will be listed as mutliplied by the temperature to get
units of energy

Electronic entropy                ...      0.00000000 Eh      0.00 kcal/mol
Vibrational entropy               ...      0.18421989 Eh    115.60 kcal/mol
Rotational entropy                ...      0.03950814 Eh     24.79 kcal/mol
Translational entropy             ...      0.04752642 Eh     29.82 kcal/mol
-----------------------------------------------------------------------
Final entropy term                ...      0.27125445 Eh    170.21 kcal/mol


-------------------
GIBBS FREE ENTHALPY
-------------------

The Gibbs free enthalpy is G = H - T*S

Total enthalpy                    ...  -2052.26697246 Eh 
Total entropy correction          ...     -0.27125445 Eh   -170.21 kcal/mol
-----------------------------------------------------------------------
Final Gibbs free enthalpy         ...  -2052.53822691 Eh

For completeness - the Gibbs free enthalpy minus the electronic energy
G-E(el)                           ...      0.05721908 Eh     35.91 kcal/mol


Total Time for Numerical Frequencies  :    115974.043 sec

Timings for individual modules:

Sum of individual times         ...    41903.169 sec (= 698.386 min)
GTO integral calculation        ...      203.707 sec (=   3.395 min)   0.5 %
SCF iterations                  ...    34423.999 sec (= 573.733 min)  82.2 %
SCF Gradient evaluation         ...     7260.248 sec (= 121.004 min)  17.3 %
Geometry relaxation             ...       15.216 sec (=   0.254 min)   0.0 %
                             ****ORCA TERMINATED NORMALLY****
TOTAL RUN TIME: 1 days 19 hours 44 minutes 38 seconds 571 msec
