
                                 *****************
                                 * O   R   C   A *
                                 *****************

           --- An Ab Initio, DFT and Semiempirical electronic structure package ---

                  #######################################################
                  #                        -***-                        #
                  #          Department of theory and spectroscopy      #
                  #               Directorship: Frank Neese             #
                  #        Max Planck Institute fuer Kohlenforschung    #
                  #                Kaiser Wilhelm Platz 1               #
                  #                 D-45470 Muelheim/Ruhr               #
                  #                      Germany                        #
                  #                                                     #
                  #                  All rights reserved                #
                  #                        -***-                        #
                  #######################################################


                         Program Version 4.1.0  - RELEASE  -


 With contributions from (in alphabetic order):
   Daniel Aravena         : Magnetic Properties
   Michael Atanasov       : Ab Initio Ligand Field Theory
   Alexander A. Auer      : GIAO ZORA
   Ute Becker             : Parallelization
   Giovanni Bistoni       : ED, Open-shell LED
   Martin Brehm           : Molecular dynamics
   Dmytro Bykov           : SCF Hessian
   Vijay G. Chilkuri      : MRCI spin determinant printing
   Dipayan Datta          : RHF DLPNO-CCSD density
   Achintya Kumar Dutta   : EOM-CC, STEOM-CC
   Dmitry Ganyushin       : Spin-Orbit,Spin-Spin,Magnetic field MRCI
   Miquel Garcia          : C-PCM Hessian
   Yang Guo               : DLPNO-NEVPT2, CIM, IAO-localization
   Andreas Hansen         : Spin unrestricted coupled pair/coupled cluster methods
   Benjamin Helmich-Paris : CASSCF linear response (MC-RPA)
   Lee Huntington         : MR-EOM, pCC
   Robert Izsak           : Overlap fitted RIJCOSX, COSX-SCS-MP3, EOM
   Christian Kollmar      : KDIIS, OOCD, Brueckner-CCSD(T), CCSD density
   Simone Kossmann        : Meta GGA functionals, TD-DFT gradient, OOMP2, MP2 Hessian
   Martin Krupicka        : AUTO-CI
   Lucas Lang             : DCDCAS
   Dagmar Lenk            : GEPOL surface, SMD
   Dimitrios Liakos       : Extrapolation schemes; parallel MDCI
   Dimitrios Manganas     : ROCIS; embedding schemes
   Dimitrios Pantazis     : SARC Basis sets
   Taras Petrenko         : DFT Hessian,TD-DFT gradient, ASA, ECA, R-Raman, ABS, FL, XAS/XES, NRVS
   Peter Pinski           : DLPNO-MP2, DLPNO-MP2 Gradient
   Christoph Reimann      : Effective Core Potentials
   Marius Retegan         : Local ZFS, SOC
   Christoph Riplinger    : Optimizer, TS searches, QM/MM, DLPNO-CCSD(T), (RO)-DLPNO pert. Triples
   Tobias Risthaus        : Range-separated hybrids, TD-DFT gradient, RPA, STAB
   Michael Roemelt        : Restricted open shell CIS
   Masaaki Saitow         : Open-shell DLPNO
   Barbara Sandhoefer     : DKH picture change effects
   Avijit Sen             : IP-ROCIS
   Kantharuban Sivalingam : CASSCF convergence, NEVPT2, FIC-MRCI
   Bernardo de Souza      : ESD, SOC TD-DFT
   Georgi Stoychev        : AutoAux, RI-MP2 NMR
   Willem Van den Heuvel  : Paramagnetic NMR
   Boris Wezisla          : Elementary symmetry handling
   Frank Wennmohs         : Technical directorship


 We gratefully acknowledge several colleagues who have allowed us to
 interface, adapt or use parts of their codes:
   Stefan Grimme, W. Hujo, H. Kruse,             : VdW corrections, initial TS optimization,
                  C. Bannwarth                     DFT functionals, gCP, sTDA/sTD-DF
   Ed Valeev                                     : LibInt (2-el integral package), F12 methods
   Garnet Chan, S. Sharma, J. Yang, R. Olivares  : DMRG
   Ulf Ekstrom                                   : XCFun DFT Library
   Mihaly Kallay                                 : mrcc  (arbitrary order and MRCC methods)
   Andreas Klamt, Michael Diedenhofen            : otool_cosmo (COSMO solvation model)
   Jiri Pittner, Ondrej Demel                    : Mk-CCSD
   Frank Weinhold                                : gennbo (NPA and NBO analysis)
   Christopher J. Cramer and Donald G. Truhlar   : smd solvation model
   Lars Goerigk                                  : TD-DFT with DH, B97 family of functionals
   V. Asgeirsson, H. Jonsson                     : NEB implementation
   FAccTs GmbH                                   : IRC, NEB, NEB-TS, Multilevel


 Your calculation uses the libint2 library for the computation of 2-el integrals
 For citations please refer to: http://libint.valeyev.net

 This ORCA versions uses:
   CBLAS   interface :  Fast vector & matrix operations
   LAPACKE interface :  Fast linear algebra routines
   SCALAPACK package :  Parallel linear algebra routines


----- Orbital basis set information -----
Your calculation utilizes the basis: 6-31G(d,p)
   H-He, Li-Ne : W. J. Hehre, R. Ditchfield and J.A. Pople, J. Chem. Phys. 56, 2257 (1972).
                 Note: He and Ne are unpublished basis sets taken from the Gaussian program.
                 Note: Li and B from J. D. Dill and J. A. Pople, J. Chem. Phys. 62, 2921 (1975).
   Na - Ar     : M. M. Francl, W. J. Pietro, W. J. Hehre, J. S. Binkley, M. S. Gordon, 
                 D. J. DeFrees and J. A. Pople, J. Chem. Phys. 77, 3654 (1982).
   K - Zn      : V. A. Rassolov, J. A. Pople, M. A. Ratner, and T. L. Windus, J. Chem. Phys. 109, 1223 (1998).

================================================================================
                                        WARNINGS
                       Please study these warnings very carefully!
================================================================================


WARNING: Geometry Optimization
  ===> : Switching off AutoStart
         For restart on a previous wavefunction, please use MOREAD

INFO   : the flag for use of LIBINT has been found!

================================================================================
                                       INPUT FILE
================================================================================
NAME = x2-4-NO2-Ph-N2-OTs-v2-B3LYPG-6-31G_dp.orc
|  1> ! B3LYP/G 6-31G(d,p) TightSCF TightOpt NumFreq Grid7
|  2> %geom MaxIter 2000 TolE 1e-8 TolRMSG 5e-7 TolMaxG 1e-6 Convergence tight end
|  3> %scf MaxIter 2000 end
|  4> %freq Temp 298.15, 323.15, 373.15, 423.15, 473.15, 523.15, 573.15, 623.15 end
|  5> * xyz 1 1
|  6>   C   -3.81619675061860     -0.72246164241633     -0.16769685165243
|  7>   C   -4.48382076069440      0.04065761943782      0.80443687076830
|  8>   C   -5.78386614891603     -0.22198332021075      1.27251547599194
|  9>   C   -6.44343728910791     -1.32025765407579      0.74131232167838
| 10>   C   -5.79007719379262     -2.08900643354989     -0.22407406586037
| 11>   C   -4.50538405989135     -1.81396007845168     -0.68696607413399
| 12>   H   -2.81216002960794     -0.43932058607053     -0.48956486332721
| 13>   H   -6.24641563609927      0.40892739990444      2.02301427231282
| 14>   H   -7.44453672510416     -1.58958600542854      1.05414728638892
| 15>   H   -4.06158237255622     -2.45058720247284     -1.44238510512684
| 16>   N   -3.81446161840853      1.13431143662752      1.33608464222933
| 17>   N   -3.18398591610844      1.96300679872108      1.73972117054051
| 18>   S   -0.30683679124818      1.11235093354192      0.25901999859382
| 19>   O   -0.94917977807072      1.12497019152548      1.60736319687668
| 20>   O   0.96966465017758      0.28595278493204      0.31571893492678
| 21>   O   -1.20966601570593      0.68229121761834     -0.84010244664597
| 22>   H   2.57608202211699     -0.71409471196745      1.42715772221723
| 23>   C   3.47847555817773     -1.23323383676076      1.12036469873732
| 24>   C   3.78027809502272     -1.35606778472169     -0.24870387901227
| 25>   C   4.37545919934168     -1.79758698659720      2.01982619621223
| 26>   C   4.91888255089331     -2.00643769580932     -0.74687878187413
| 27>   C   5.50880009302373     -2.44497924404229      1.52941329099593
| 28>   H   4.21146979239343     -1.74375236039760      3.08908609431457
| 29>   C   5.80087485772640     -2.56213069499588      0.17052706960871
| 30>   H   5.09850338181445     -2.06916962082542     -1.81410102536078
| 31>   N   2.88940337920675     -0.79455834703081     -1.15934847249826
| 32>   N   1.98456270116809     -0.24248655825052     -1.54351133435927
| 33>   N   -6.50873213176370     -3.26424705616805     -0.78883002143431
| 34>   O   -5.90981959246469     -3.92559891760379     -1.62776318529264
| 35>   O   -7.63948496822229     -3.47335747315966     -0.36700504321592
| 36>   C   0.19112212984911      2.78935593439537     -0.10495781530663
| 37>   C   0.64543299814463      3.61086035477113      0.93175331113235
| 38>   C   0.15851762402790      3.25251457125382     -1.42046036330983
| 39>   C   1.07012397056614      4.90312707816070      0.63813121922789
| 40>   H   0.64780098089525      3.24405314542083      1.95273670321974
| 41>   C   0.58849006692636      4.55099963192784     -1.69610057180373
| 42>   H   -0.21459530231572      2.60951551638952     -2.21028119371884
| 43>   C   1.05115866388762      5.39489177469477     -0.67778365959182
| 44>   H   1.41846110264279      5.54498977884250      1.44311839267409
| 45>   H   0.55803517429315      4.91586025513877     -2.71908908708575
| 46>   C   1.50346414145182      6.80371080826139     -0.97500453869142
| 47>   H   2.50244018552232      6.99375296481758     -0.56842251307407
| 48>   H   1.53286170378629      6.99836379278800     -2.04982116602452
| 49>   H   0.82775616808706      7.53757243425456     -0.52088991724783
| 50>   H   6.69988675337490     -3.07845179189127     -0.14180529260537
| 51>   N   6.45792558451644     -3.04355142123389      2.50703691992133
| 52>   O   6.17519588768165     -2.92640892180738      3.69310378001609
| 53>   O   7.44420966398042     -3.60476007748609      2.04565769966924
| 54> 
| 55> *
| 56> %pal nprocs 42 end
| 57> 
| 58>                          ****END OF INPUT****
================================================================================

                       *****************************
                       * Geometry Optimization Run *
                       *****************************

Geometry optimization settings:
Update method            Update   .... BFGS
Choice of coordinates    CoordSys .... Z-matrix Internals
Initial Hessian          InHess   .... Almoef's Model

Convergence Tolerances:
Energy Change            TolE     ....  1.0000e-06 Eh
Max. Gradient            TolMAXG  ....  1.0000e-04 Eh/bohr
RMS Gradient             TolRMSG  ....  3.0000e-05 Eh/bohr
Max. Displacement        TolMAXD  ....  1.0000e-03 bohr
RMS Displacement         TolRMSD  ....  6.0000e-04 bohr

------------------------------------------------------------------------------
                        ORCA OPTIMIZATION COORDINATE SETUP
------------------------------------------------------------------------------

The optimization will be done in new redundant internal coordinates
Making redundant internal coordinates   ...  (new redundants) done
Evaluating the initial hessian          ...  (Almloef) done
Evaluating the coordinates              ...  done
Calculating the B-matrix                .... done
Calculating the G-matrix                .... done
Diagonalizing the G-matrix              .... done
Small eigenvalue found = 2.818e-03
Small eigenvalue found = 3.792e-03
Small eigenvalue found = 5.801e-03
Small eigenvalue found = 7.268e-03
Small eigenvalue found = 2.046e-02
Small eigenvalue found = 2.452e-02
The first mode is                       ....  134
The number of degrees of freedom        ....  138

    -----------------------------------------------------------------
                    Redundant Internal Coordinates


    -----------------------------------------------------------------
         Definition                    Initial Value    Approx d2E/dq
    -----------------------------------------------------------------
      1. B(C   1,C   0)                  1.4047         0.592001   
      2. B(C   2,C   1)                  1.4065         0.588085   
      3. B(C   3,C   2)                  1.3869         0.632015   
      4. B(C   4,C   3)                  1.3964         0.610365   
      5. B(C   5,C   0)                  1.3914         0.621596   
      6. B(C   5,C   4)                  1.3930         0.618024   
      7. B(H   6,C   0)                  1.0917         0.357829   
      8. B(H   7,C   2)                  1.0841         0.368005   
      9. B(H   8,C   3)                  1.0829         0.369659   
     10. B(H   9,C   5)                  1.0830         0.369466   
     11. B(N  10,C   1)                  1.3881         0.563555   
     12. B(N  11,N  10)                  1.1168         1.367558   
     13. B(O  13,S  12)                  1.4936         1.031292   
     14. B(O  13,N  11)                  2.3904         0.012702   
     15. B(O  14,S  12)                  1.5217         0.930051   
     16. B(O  15,S  12)                  1.4860         1.060525   
     17. B(O  15,H   6)                  1.9872         0.011945   
     18. B(H  16,O  14)                  2.1945         0.005576   
     19. B(C  17,H  16)                  1.0853         0.366331   
     20. B(C  18,C  17)                  1.4073         0.586302   
     21. B(C  19,C  17)                  1.3900         0.624792   
     22. B(C  20,C  18)                  1.4027         0.596307   
     23. B(C  21,C  19)                  1.3943         0.614996   
     24. B(H  22,C  19)                  1.0831         0.369343   
     25. B(C  23,C  21)                  1.3948         0.613765   
     26. B(C  23,C  20)                  1.3886         0.627911   
     27. B(H  24,C  20)                  1.0840         0.368059   
     28. B(N  25,C  18)                  1.3922         0.555090   
     29. B(N  25,O  14)                  2.6512         0.004874   
     30. B(N  26,O  14)                  2.1831         0.027205   
     31. B(N  26,N  25)                  1.1274         1.314995   
     32. B(N  27,C   4)                  1.4888         0.389228   
     33. B(O  28,N  27)                  1.2247         0.919893   
     34. B(O  29,N  27)                  1.2249         0.919377   
     35. B(C  30,S  12)                  1.7868         0.392082   
     36. B(C  31,C  30)                  1.3986         0.605401   
     37. B(C  32,C  30)                  1.3950         0.613343   
     38. B(C  33,C  31)                  1.3916         0.621152   
     39. B(H  34,C  31)                  1.0849         0.366940   
     40. B(C  35,C  32)                  1.3953         0.612705   
     41. B(H  36,C  32)                  1.0847         0.367240   
     42. B(C  37,C  35)                  1.4011         0.599749   
     43. B(C  37,C  33)                  1.4049         0.591454   
     44. B(H  38,C  33)                  1.0869         0.364237   
     45. B(H  39,C  35)                  1.0865         0.364714   
     46. B(C  40,C  37)                  1.5092         0.403236   
     47. B(H  41,C  40)                  1.0952         0.353337   
     48. B(H  42,C  40)                  1.0927         0.356551   
     49. B(H  43,C  40)                  1.0961         0.352168   
     50. B(H  44,C  23)                  1.0828         0.369811   
     51. B(N  45,C  21)                  1.4882         0.390059   
     52. B(O  46,N  45)                  1.2249         0.919173   
     53. B(O  47,N  45)                  1.2250         0.918940   
     54. A(C   1,C   0,H   6)          120.0168         0.349789   
     55. A(C   1,C   0,C   5)          116.6818         0.430674   
     56. A(C   5,C   0,H   6)          123.2957         0.352685   
     57. A(C   0,C   1,N  10)          117.6399         0.420428   
     58. A(C   2,C   1,N  10)          117.7353         0.419930   
     59. A(C   0,C   1,C   2)          124.6242         0.426416   
     60. A(C   1,C   2,H   7)          121.0710         0.351056   
     61. A(C   1,C   2,C   3)          117.3870         0.431448   
     62. A(C   3,C   2,H   7)          121.5412         0.355364   
     63. A(C   2,C   3,C   4)          118.5714         0.434342   
     64. A(C   4,C   3,H   8)          119.6943         0.353539   
     65. A(C   2,C   3,H   8)          121.7341         0.355634   
     66. A(C   3,C   4,C   5)          123.5435         0.432597   
     67. A(C   3,C   4,N  27)          118.0977         0.395910   
     68. A(C   5,C   4,N  27)          118.3587         0.396778   
     69. A(C   4,C   5,H   9)          119.5810         0.354255   
     70. A(C   0,C   5,H   9)          121.2296         0.354602   
     71. A(C   0,C   5,C   4)          119.1894         0.434018   
     72. A(C   0,H   6,O  15)          160.0581         0.181147   
     73. A(C   1,N  10,N  11)          174.4588         0.482950   
     74. A(N  10,N  11,O  13)          104.3380         0.254573   
     75. A(O  14,S  12,O  15)          112.3369         0.571353   
     76. A(O  13,S  12,C  30)          107.2063         0.485972   
     77. A(O  14,S  12,C  30)          106.4695         0.476796   
     78. A(O  13,S  12,O  14)          109.3731         0.568311   
     79. A(O  13,S  12,O  15)          114.1349         0.582767   
     80. A(O  15,S  12,C  30)          106.8742         0.488492   
     81. A(N  11,O  13,S  12)          117.0660         0.256848   
     82. A(H  16,O  14,N  26)           88.8950         0.138217   
     83. A(N  25,O  14,N  26)           24.6163         0.143925   
     84. A(S  12,O  14,N  26)          119.3205         0.283815   
     85. A(H  16,O  14,N  25)           64.2787         0.122350   
     86. A(S  12,O  14,H  16)          151.6908         0.207292   
     87. A(S  12,O  14,N  25)          143.9038         0.221009   
     88. A(H   6,O  15,S  12)          121.5221         0.233789   
     89. A(O  14,H  16,C  17)          133.1128         0.166968   
     90. A(C  18,C  17,C  19)          117.1089         0.430323   
     91. A(H  16,C  17,C  19)          123.2182         0.354398   
     92. A(H  16,C  17,C  18)          119.6729         0.350606   
     93. A(C  17,C  18,C  20)          124.0591         0.426737   
     94. A(C  20,C  18,N  25)          118.3020         0.419836   
     95. A(C  17,C  18,N  25)          117.6389         0.418572   
     96. A(C  21,C  19,H  22)          119.5629         0.353941   
     97. A(C  17,C  19,H  22)          121.3953         0.354890   
     98. A(C  17,C  19,C  21)          119.0418         0.434034   
     99. A(C  18,C  20,H  24)          120.7284         0.351889   
    100. A(C  18,C  20,C  23)          117.8054         0.432019   
    101. A(C  23,C  20,H  24)          121.4662         0.354980   
    102. A(C  19,C  21,C  23)          123.4946         0.432647   
    103. A(C  23,C  21,N  45)          118.2057         0.396445   
    104. A(C  19,C  21,N  45)          118.2997         0.396584   
    105. A(C  20,C  23,C  21)          118.4902         0.434267   
    106. A(C  21,C  23,H  44)          119.6654         0.353897   
    107. A(C  20,C  23,H  44)          121.8444         0.355266   
    108. A(O  14,N  25,N  26)           53.7624         0.221125   
    109. A(O  14,N  25,C  18)          105.2961         0.198614   
    110. A(C  18,N  25,N  26)          159.0582         0.478136   
    111. A(O  14,N  26,N  25)          101.6212         0.283985   
    112. A(O  28,N  27,O  29)          126.5251         0.487945   
    113. A(C   4,N  27,O  29)          116.7272         0.420153   
    114. A(C   4,N  27,O  28)          116.7477         0.420195   
    115. A(C  31,C  30,C  32)          120.7688         0.431372   
    116. A(S  12,C  30,C  32)          119.8129         0.421095   
    117. A(S  12,C  30,C  31)          119.3938         0.420117   
    118. A(C  33,C  31,H  34)          120.7892         0.354147   
    119. A(C  30,C  31,H  34)          119.9808         0.352610   
    120. A(C  30,C  31,C  33)          119.2216         0.432354   
    121. A(C  35,C  32,H  36)          120.9191         0.353375   
    122. A(C  30,C  32,H  36)          119.8601         0.353437   
    123. A(C  30,C  32,C  35)          119.2122         0.432303   
    124. A(C  37,C  33,H  38)          119.4277         0.350784   
    125. A(C  31,C  33,H  38)          119.3363         0.353703   
    126. A(C  31,C  33,C  37)          121.2353         0.430548   
    127. A(C  37,C  35,H  39)          119.4246         0.351689   
    128. A(C  32,C  35,H  39)          119.3309         0.352962   
    129. A(C  32,C  35,C  37)          121.2434         0.430566   
    130. A(C  35,C  37,C  40)          121.2023         0.399707   
    131. A(C  33,C  37,C  40)          120.4750         0.398729   
    132. A(C  33,C  37,C  35)          118.3184         0.427848   
    133. A(C  37,C  40,H  42)          111.5967         0.327887   
    134. A(C  37,C  40,H  41)          111.2384         0.327398   
    135. A(H  42,C  40,H  43)          107.7490         0.289375   
    136. A(H  41,C  40,H  43)          106.9982         0.288964   
    137. A(C  37,C  40,H  43)          111.0176         0.327220   
    138. A(H  41,C  40,H  42)          108.0427         0.289525   
    139. A(O  46,N  45,O  47)          126.4663         0.487832   
    140. A(C  21,N  45,O  47)          116.7645         0.420278   
    141. A(C  21,N  45,O  46)          116.7692         0.420297   
    142. D(N  10,C   1,C   0,H   6)     -0.8436         0.024126   
    143. D(C   2,C   1,C   0,H   6)    178.8769         0.024126   
    144. D(N  10,C   1,C   0,C   5)    179.9958         0.024126   
    145. D(C   2,C   1,C   0,C   5)     -0.2836         0.024126   
    146. D(C   3,C   2,C   1,N  10)   -179.6884         0.023792   
    147. D(H   7,C   2,C   1,N  10)     -0.0004         0.023792   
    148. D(H   7,C   2,C   1,C   0)   -179.7207         0.023792   
    149. D(C   3,C   2,C   1,C   0)      0.5913         0.023792   
    150. D(C   4,C   3,C   2,H   7)    179.8848         0.027707   
    151. D(C   4,C   3,C   2,C   1)     -0.4287         0.027707   
    152. D(H   8,C   3,C   2,C   1)    179.7375         0.027707   
    153. D(H   8,C   3,C   2,H   7)      0.0511         0.027707   
    154. D(N  27,C   4,C   3,H   8)     -0.0631         0.025731   
    155. D(C   5,C   4,C   3,H   8)    179.8381         0.025731   
    156. D(N  27,C   4,C   3,C   2)   -179.9003         0.025731   
    157. D(C   5,C   4,C   3,C   2)      0.0009         0.025731   
    158. D(H   9,C   5,C   4,C   3)   -179.6616         0.026420   
    159. D(H   9,C   5,C   4,N  27)      0.2395         0.026420   
    160. D(C   0,C   5,C   4,N  27)   -179.7849         0.026420   
    161. D(H   9,C   5,C   0,H   6)      0.6747         0.026745   
    162. D(H   9,C   5,C   0,C   1)    179.8051         0.026745   
    163. D(C   4,C   5,C   0,H   6)   -179.3005         0.026745   
    164. D(C   0,C   5,C   4,C   3)      0.3141         0.026420   
    165. D(C   4,C   5,C   0,C   1)     -0.1701         0.026745   
    166. D(O  15,H   6,C   0,C   1)    -23.1552         0.107955   
    167. D(O  15,H   6,C   0,C   5)    155.9475         0.107955   
    168. D(N  11,N  10,C   1,C   0)    -26.1305         0.023025   
    169. D(N  11,N  10,C   1,C   2)    154.1293         0.023025   
    170. D(O  13,N  11,N  10,C   1)     -5.7456         0.181317   
    171. D(N  11,O  13,S  12,O  14)   -167.9768         0.023877   
    172. D(S  12,O  13,N  11,N  10)     76.4293         0.001509   
    173. D(N  11,O  13,S  12,C  30)     76.9680         0.023877   
    174. D(N  11,O  13,S  12,O  15)    -41.1785         0.023877   
    175. D(N  26,O  14,S  12,C  30)    -75.1218         0.022529   
    176. D(N  26,O  14,S  12,O  15)     41.5395         0.022529   
    177. D(N  26,O  14,S  12,O  13)    169.3511         0.022529   
    178. D(N  25,O  14,S  12,C  30)    -73.3685         0.022529   
    179. D(N  25,O  14,S  12,O  15)     43.2929         0.022529   
    180. D(H  16,O  14,S  12,C  30)     99.7810         0.022529   
    181. D(H  16,O  14,S  12,O  15)   -143.5576         0.022529   
    182. D(H  16,O  14,S  12,O  13)    -15.7461         0.022529   
    183. D(N  25,O  14,S  12,O  13)    171.1044         0.022529   
    184. D(H   6,O  15,S  12,C  30)   -141.5263         0.025295   
    185. D(H   6,O  15,S  12,O  14)    102.0550         0.025295   
    186. D(H   6,O  15,S  12,O  13)    -23.1902         0.025295   
    187. D(S  12,O  15,H   6,C   0)     74.9034         0.001565   
    188. D(C  17,H  16,O  14,N  26)      0.3139         0.001518   
    189. D(C  17,H  16,O  14,N  25)      0.2838         0.001518   
    190. D(C  17,H  16,O  14,S  12)   -175.2425         0.001518   
    191. D(C  19,C  17,H  16,O  14)    179.7111         0.114303   
    192. D(C  18,C  17,H  16,O  14)     -0.2899         0.114303   
    193. D(N  25,C  18,C  17,C  19)   -179.9878         0.023641   
    194. D(N  25,C  18,C  17,H  16)      0.0132         0.023641   
    195. D(C  20,C  18,C  17,C  19)     -0.0097         0.023641   
    196. D(C  20,C  18,C  17,H  16)    179.9913         0.023641   
    197. D(H  22,C  19,C  17,C  18)    179.9925         0.027038   
    198. D(H  22,C  19,C  17,H  16)     -0.0085         0.027038   
    199. D(C  21,C  19,C  17,C  18)      0.0169         0.027038   
    200. D(C  21,C  19,C  17,H  16)   -179.9841         0.027038   
    201. D(H  24,C  20,C  18,N  25)     -0.0081         0.024497   
    202. D(H  24,C  20,C  18,C  17)   -179.9861         0.024497   
    203. D(C  23,C  20,C  18,N  25)    179.9655         0.024497   
    204. D(C  23,C  20,C  18,C  17)     -0.0125         0.024497   
    205. D(N  45,C  21,C  19,H  22)      0.0378         0.026146   
    206. D(N  45,C  21,C  19,C  17)   -179.9861         0.026146   
    207. D(C  23,C  21,C  19,H  22)   -179.9787         0.026146   
    208. D(C  23,C  21,C  19,C  17)     -0.0026         0.026146   
    209. D(H  44,C  23,C  21,C  19)    179.9838         0.026036   
    210. D(C  20,C  23,C  21,N  45)    179.9635         0.026036   
    211. D(C  20,C  23,C  21,C  19)     -0.0200         0.026036   
    212. D(H  44,C  23,C  20,H  24)     -0.0041         0.027325   
    213. D(H  44,C  23,C  20,C  18)   -179.9775         0.027325   
    214. D(C  21,C  23,C  20,H  24)    179.9999         0.027325   
    215. D(H  44,C  23,C  21,N  45)     -0.0326         0.026036   
    216. D(C  21,C  23,C  20,C  18)      0.0265         0.027325   
    217. D(O  14,N  25,C  18,C  20)   -179.8135         0.024583   
    218. D(O  14,N  25,C  18,C  17)      0.1660         0.024583   
    219. D(N  26,N  25,C  18,C  20)   -179.5531         0.024583   
    220. D(N  26,N  25,C  18,C  17)      0.4263         0.024583   
    221. D(N  26,N  25,O  14,H  16)    179.9278         0.001502   
    222. D(N  26,N  25,O  14,S  12)     -3.6720         0.001502   
    223. D(C  18,N  25,O  14,N  26)    179.8846         0.001502   
    224. D(C  18,N  25,O  14,H  16)     -0.1876         0.001502   
    225. D(C  18,N  25,O  14,S  12)    176.2126         0.001502   
    226. D(O  14,N  26,N  25,C  18)     -0.3114         0.187108   
    227. D(N  25,N  26,O  14,H  16)     -0.0651         0.001550   
    228. D(N  25,N  26,O  14,S  12)    177.5197         0.001550   
    229. D(O  29,N  27,C   4,C   5)   -179.5408         0.011989   
    230. D(O  29,N  27,C   4,C   3)      0.3657         0.011989   
    231. D(O  28,N  27,C   4,C   5)      0.5130         0.011989   
    232. D(O  28,N  27,C   4,C   3)   -179.5805         0.011989   
    233. D(C  32,C  30,S  12,O  15)    -23.7597         0.004202   
    234. D(C  32,C  30,S  12,O  14)     96.4932         0.004202   
    235. D(C  32,C  30,S  12,O  13)   -146.5276         0.004202   
    236. D(C  31,C  30,S  12,O  15)    158.0232         0.004202   
    237. D(C  31,C  30,S  12,O  14)    -81.7239         0.004202   
    238. D(C  31,C  30,S  12,O  13)     35.2553         0.004202   
    239. D(H  34,C  31,C  30,C  32)    178.8484         0.025291   
    240. D(H  34,C  31,C  30,S  12)     -2.9519         0.025291   
    241. D(C  33,C  31,C  30,C  32)     -0.1094         0.025291   
    242. D(C  33,C  31,C  30,S  12)    178.0902         0.025291   
    243. D(H  36,C  32,C  30,C  31)   -178.8200         0.025998   
    244. D(H  36,C  32,C  30,S  12)      2.9878         0.025998   
    245. D(C  35,C  32,C  30,C  31)      0.1224         0.025998   
    246. D(C  35,C  32,C  30,S  12)   -178.0698         0.025998   
    247. D(H  38,C  33,C  31,H  34)      0.7204         0.026704   
    248. D(H  38,C  33,C  31,C  30)    179.6696         0.026704   
    249. D(C  37,C  33,C  31,H  34)   -178.9874         0.026704   
    250. D(C  37,C  33,C  31,C  30)     -0.0382         0.026704   
    251. D(H  39,C  35,C  32,H  36)     -0.6862         0.025941   
    252. D(H  39,C  35,C  32,C  30)   -179.6171         0.025941   
    253. D(C  37,C  35,C  32,H  36)    178.9429         0.025941   
    254. D(C  37,C  35,C  32,C  30)      0.0120         0.025941   
    255. D(C  40,C  37,C  35,H  39)      0.2267         0.024796   
    256. D(C  40,C  37,C  35,C  32)   -179.4020         0.024796   
    257. D(C  33,C  37,C  35,H  39)    179.4747         0.024796   
    258. D(C  33,C  37,C  35,C  32)     -0.1540         0.024796   
    259. D(C  40,C  37,C  33,H  38)     -0.2866         0.024079   
    260. D(C  40,C  37,C  33,C  31)    179.4210         0.024079   
    261. D(C  35,C  37,C  33,H  38)   -179.5402         0.024079   
    262. D(C  35,C  37,C  33,C  31)      0.1674         0.024079   
    263. D(H  43,C  40,C  37,C  35)    113.2361         0.012059   
    264. D(H  43,C  40,C  37,C  33)    -65.9958         0.012059   
    265. D(H  42,C  40,C  37,C  35)     -6.9844         0.012059   
    266. D(H  42,C  40,C  37,C  33)    173.7838         0.012059   
    267. D(H  41,C  40,C  37,C  35)   -127.7304         0.012059   
    268. D(H  41,C  40,C  37,C  33)     53.0378         0.012059   
    269. D(O  47,N  45,C  21,C  23)      0.0506         0.012038   
    270. D(O  47,N  45,C  21,C  19)   -179.9650         0.012038   
    271. D(O  46,N  45,C  21,C  23)   -179.9330         0.012038   
    272. D(O  46,N  45,C  21,C  19)      0.0514         0.012038   
    -----------------------------------------------------------------

Number of atoms                         .... 48
Number of degrees of freedom            .... 272

         *************************************************************
         *                GEOMETRY OPTIMIZATION CYCLE   1            *
         *************************************************************
---------------------------------
CARTESIAN COORDINATES (ANGSTROEM)
---------------------------------
  C     -3.816197   -0.722462   -0.167697
  C     -4.483821    0.040658    0.804437
  C     -5.783866   -0.221983    1.272515
  C     -6.443437   -1.320258    0.741312
  C     -5.790077   -2.089006   -0.224074
  C     -4.505384   -1.813960   -0.686966
  H     -2.812160   -0.439321   -0.489565
  H     -6.246416    0.408927    2.023014
  H     -7.444537   -1.589586    1.054147
  H     -4.061582   -2.450587   -1.442385
  N     -3.814462    1.134311    1.336085
  N     -3.183986    1.963007    1.739721
  S     -0.306837    1.112351    0.259020
  O     -0.949180    1.124970    1.607363
  O      0.969665    0.285953    0.315719
  O     -1.209666    0.682291   -0.840102
  H      2.576082   -0.714095    1.427158
  C      3.478476   -1.233234    1.120365
  C      3.780278   -1.356068   -0.248704
  C      4.375459   -1.797587    2.019826
  C      4.918883   -2.006438   -0.746879
  C      5.508800   -2.444979    1.529413
  H      4.211470   -1.743752    3.089086
  C      5.800875   -2.562131    0.170527
  H      5.098503   -2.069170   -1.814101
  N      2.889403   -0.794558   -1.159348
  N      1.984563   -0.242487   -1.543511
  N     -6.508732   -3.264247   -0.788830
  O     -5.909820   -3.925599   -1.627763
  O     -7.639485   -3.473357   -0.367005
  C      0.191122    2.789356   -0.104958
  C      0.645433    3.610860    0.931753
  C      0.158518    3.252515   -1.420460
  C      1.070124    4.903127    0.638131
  H      0.647801    3.244053    1.952737
  C      0.588490    4.551000   -1.696101
  H     -0.214595    2.609516   -2.210281
  C      1.051159    5.394892   -0.677784
  H      1.418461    5.544990    1.443118
  H      0.558035    4.915860   -2.719089
  C      1.503464    6.803711   -0.975005
  H      2.502440    6.993753   -0.568423
  H      1.532862    6.998364   -2.049821
  H      0.827756    7.537572   -0.520890
  H      6.699887   -3.078452   -0.141805
  N      6.457926   -3.043551    2.507037
  O      6.175196   -2.926409    3.693104
  O      7.444210   -3.604760    2.045658

----------------------------
CARTESIAN COORDINATES (A.U.)
----------------------------
  NO LB      ZA    FRAG     MASS         X           Y           Z
   0 C     6.0000    0    12.011   -7.211567   -1.365255   -0.316901
   1 C     6.0000    0    12.011   -8.473193    0.076832    1.520165
   2 C     6.0000    0    12.011  -10.929923   -0.419488    2.404706
   3 C     6.0000    0    12.011  -12.176332   -2.494925    1.400877
   4 C     6.0000    0    12.011  -10.941660   -3.947650   -0.423439
   5 C     6.0000    0    12.011   -8.513942   -3.427888   -1.298178
   6 H     1.0000    0     1.008   -5.314212   -0.830196   -0.925144
   7 H     1.0000    0     1.008  -11.804015    0.772761    3.822943
   8 H     1.0000    0     1.008  -14.068136   -3.003882    1.992050
   9 H     1.0000    0     1.008   -7.675278   -4.630939   -2.725713
  10 N     7.0000    0    14.007   -7.208288    2.143538    2.524834
  11 N     7.0000    0    14.007   -6.016861    3.709545    3.287597
  12 S    16.0000    0    32.060   -0.579838    2.102039    0.489477
  13 O     8.0000    0    15.999   -1.793690    2.125886    3.037476
  14 O     8.0000    0    15.999    1.832401    0.540372    0.596622
  15 O     8.0000    0    15.999   -2.285937    1.289344   -1.587564
  16 H     1.0000    0     1.008    4.868090   -1.349443    2.696937
  17 C     6.0000    0    12.011    6.573366   -2.330474    2.117182
  18 C     6.0000    0    12.011    7.143690   -2.562597   -0.469982
  19 C     6.0000    0    12.011    8.268420   -3.396947    3.816918
  20 C     6.0000    0    12.011    9.295341   -3.791618   -1.411396
  21 C     6.0000    0    12.011   10.410124   -4.620341    2.890172
  22 H     1.0000    0     1.008    7.958525   -3.295214    5.837527
  23 C     6.0000    0    12.011   10.962065   -4.841725    0.322249
  24 H     1.0000    0     1.008    9.634775   -3.910164   -3.428154
  25 N     7.0000    0    14.007    5.460181   -1.501498   -2.190851
  26 N     7.0000    0    14.007    3.750280   -0.458233   -2.916814
  27 N     7.0000    0    14.007  -12.299721   -6.168533   -1.490673
  28 O     8.0000    0    15.999  -11.167941   -7.418307   -3.076027
  29 O     8.0000    0    15.999  -14.436534   -6.563694   -0.693539
  30 C     6.0000    0    12.011    0.361168    5.271119   -0.198342
  31 C     6.0000    0    12.011    1.219692    6.823537    1.760759
  32 C     6.0000    0    12.011    0.299555    6.146362   -2.684281
  33 C     6.0000    0    12.011    2.022241    9.265567    1.205893
  34 H     1.0000    0     1.008    1.224166    6.130372    3.690138
  35 C     6.0000    0    12.011    1.112085    8.600143   -3.205166
  36 H     1.0000    0     1.008   -0.405526    4.931270   -4.176826
  37 C     6.0000    0    12.011    1.986402   10.194868   -1.280825
  38 H     1.0000    0     1.008    2.680503   10.478512    2.727099
  39 H     1.0000    0     1.008    1.054534    9.289630   -5.138334
  40 C     6.0000    0    12.011    2.841135   12.857150   -1.842492
  41 H     1.0000    0     1.008    4.728927   13.216278   -1.074163
  42 H     1.0000    0     1.008    2.896689   13.224991   -3.873601
  43 H     1.0000    0     1.008    1.564232   14.243948   -0.984339
  44 H     1.0000    0     1.008   12.660951   -5.817431   -0.267973
  45 N     7.0000    0    14.007   12.203711   -5.751479    4.737613
  46 O     8.0000    0    15.999   11.669429   -5.530111    6.978955
  47 O     8.0000    0    15.999   14.067518   -6.812009    3.865733

--------------------------------
INTERNAL COORDINATES (ANGSTROEM)
--------------------------------
 C      0   0   0     0.000000000000     0.00000000     0.00000000
 C      1   0   0     1.404676760294     0.00000000     0.00000000
 C      2   1   0     1.406483506936   124.62420773     0.00000000
 C      3   2   1     1.386873243146   117.38700141     0.59129722
 C      4   3   2     1.396361334805   118.57144963   359.57127778
 C      1   2   3     1.391398041017   116.68184135   359.71635232
 H      1   2   3     1.091722314449   120.01677922   178.87690508
 H      3   2   1     1.084088929991   121.07099339   180.27932325
 H      4   3   2     1.082868208389   121.73408424   179.73752553
 H      6   1   2     1.083010593257   121.22963538   179.80511130
 N      2   1   3     1.388081296652   117.63991747   180.27945223
 N     11   2   1     1.116762311924   174.45878284   333.86948146
 S      7   1   2     3.040511195332   144.84215719    21.15336257
 O     13   7   1     1.493583991193    82.65785364    13.63670990
 O     13   7   1     1.521711076180   115.03871101   121.63345059
 O     13   7   1     1.485975140245    33.85726740   214.88027358
 H     15  13   7     2.194531372940   151.69078085   253.40932638
 C     17  15  13     1.085330126768   133.11276568   184.75752253
 C     18  17  15     1.407310101079   119.67286785   359.71006954
 C     18  17  15     1.390001840174   123.21823408   179.71109768
 C     19  18  17     1.402704303129   124.05910701   179.99130864
 C     20  18  17     1.394303816926   119.04179959   180.01585391
 H     20  18  17     1.083100836607   121.39528364     0.00000000
 C     21  19  18     1.388646331862   117.80538170     0.00000000
 H     21  19  18     1.084049009183   120.72838732   180.01389689
 N     19  18  17     1.392201200812   117.63885923     0.00000000
 N     26  19  18     1.127431158446   159.05823032     0.42634478
 N      5   4   3     1.488826628684   118.09770792   180.09967167
 O     28   5   4     1.224700521669   116.74768068   180.41951476
 O     28   5   4     1.224853238516   116.72717196     0.36570936
 C     13   7   1     1.786837628046   131.18103629   267.16375976
 C     31  13   7     1.398584226077   119.39383616   130.60107534
 C     31  13   7     1.395036175337   119.81294922   308.81819257
 C     32  31  13     1.391592483197   119.22164886   178.09020798
 H     32  31  13     1.084877976130   119.98082876   357.04806131
 C     33  31  13     1.395319776605   119.21219326   181.93023762
 H     33  31  13     1.084655698602   119.86013710     2.98782961
 C     36  33  31     1.401137221308   121.24339770     0.00000000
 H     34  32  31     1.086890442281   119.33633289   179.66956826
 H     36  33  31     1.086534066311   119.33093411   180.38292915
 C     38  36  33     1.509202294375   121.20234875   180.59802695
 H     41  38  36     1.095161221670   111.23839211   232.26959407
 H     41  38  36     1.092696107547   111.59669094   353.01558331
 H     41  38  36     1.096063064236   111.01758878   113.23606316
 H     24  21  19     1.082756375231   121.84437301   180.02252438
 N     22  20  18     1.488245883496   118.29967774   180.01387923
 O     46  22  20     1.224913483989   116.76920937     0.05143282
 O     46  22  20     1.224982541156   116.76452594   180.03497705

---------------------------
INTERNAL COORDINATES (A.U.)
---------------------------
 C      0   0   0     0.000000000000     0.00000000     0.00000000
 C      1   0   0     2.654454383639     0.00000000     0.00000000
 C      2   1   0     2.657868639987   124.62420773     0.00000000
 C      3   2   1     2.620810612008   117.38700141     0.59129722
 C      4   3   2     2.638740506778   118.57144963   359.57127778
 C      1   2   3     2.629361240797   116.68184135   359.71635232
 H      1   2   3     2.063056188599   120.01677922   178.87690508
 H      3   2   1     2.048631182499   121.07099339   180.27932325
 H      4   3   2     2.046324352985   121.73408424   179.73752553
 H      6   1   2     2.046593421392   121.22963538   179.80511130
 N      2   1   3     2.623093502290   117.63991747   180.27945223
 N     11   2   1     2.110374926221   174.45878284   333.86948146
 S      7   1   2     5.745733466299   144.84215719    21.15336257
 O     13   7   1     2.822464701364    82.65785364    13.63670990
 O     13   7   1     2.875617188935   115.03871101   121.63345059
 O     13   7   1     2.808086056878    33.85726740   214.88027358
 H     15  13   7     4.147063287155   151.69078085   253.40932638
 C     17  15  13     2.050976704486   133.11276568   184.75752253
 C     18  17  15     2.659430676540   119.67286785   359.71006954
 C     18  17  15     2.626722803575   123.21823408   179.71109768
 C     19  18  17     2.650726979788   124.05910701   179.99130864
 C     20  18  17     2.634852361471   119.04179959   180.01585391
 H     20  18  17     2.046763956609   121.39528364     0.00000000
 C     21  19  18     2.624161264093   117.80538170     0.00000000
 H     21  19  18     2.048555743104   120.72838732   180.01389689
 N     19  18  17     2.630878992850   117.63885923     0.00000000
 N     26  19  18     2.130536124312   159.05823032     0.42634478
 N      5   4   3     2.813474589102   118.09770792   180.09967167
 O     28   5   4     2.314348582024   116.74768068   180.41951476
 O     28   5   4     2.314637175041   116.72717196     0.36570936
 C     13   7   1     3.376633762792   131.18103629   267.16375976
 C     31  13   7     2.642941162507   119.39383616   130.60107534
 C     31  13   7     2.636236318300   119.81294922   308.81819257
 C     32  31  13     2.629728683266   119.22164886   178.09020798
 H     32  31  13     2.050122263608   119.98082876   357.04806131
 C     33  31  13     2.636772247027   119.21219326   181.93023762
 H     33  31  13     2.049702219954   119.86013710     2.98782961
 C     36  33  31     2.647765624316   121.24339770     0.00000000
 H     34  32  31     2.053925273489   119.33633289   179.66956826
 H     36  33  31     2.053251820503   119.33093411   180.38292915
 C     38  36  33     2.851979017054   121.20234875   180.59802695
 H     41  38  36     2.069554781447   111.23839211   232.26959407
 H     41  38  36     2.064896390865   111.59669094   353.01558331
 H     41  38  36     2.071259016913   111.01758878   113.23606316
 H     24  21  19     2.046113018944   121.84437301   180.02252438
 N     22  20  18     2.812377139743   118.29967774   180.01387923
 O     46  22  20     2.314751022487   116.76920937     0.05143282
 O     46  22  20     2.314881521620   116.76452594   180.03497705

---------------------
BASIS SET INFORMATION
---------------------
There are 5 groups of distinct atoms

 Group   1 Type C   : 10s4p1d contracted to 3s2p1d pattern {631/31/1}
 Group   2 Type H   : 4s1p contracted to 2s1p pattern {31/1}
 Group   3 Type N   : 10s4p1d contracted to 3s2p1d pattern {631/31/1}
 Group   4 Type S   : 16s10p1d contracted to 4s3p1d pattern {6631/631/1}
 Group   5 Type O   : 10s4p1d contracted to 3s2p1d pattern {631/31/1}

Atom   0C    basis set group =>   1
Atom   1C    basis set group =>   1
Atom   2C    basis set group =>   1
Atom   3C    basis set group =>   1
Atom   4C    basis set group =>   1
Atom   5C    basis set group =>   1
Atom   6H    basis set group =>   2
Atom   7H    basis set group =>   2
Atom   8H    basis set group =>   2
Atom   9H    basis set group =>   2
Atom  10N    basis set group =>   3
Atom  11N    basis set group =>   3
Atom  12S    basis set group =>   4
Atom  13O    basis set group =>   5
Atom  14O    basis set group =>   5
Atom  15O    basis set group =>   5
Atom  16H    basis set group =>   2
Atom  17C    basis set group =>   1
Atom  18C    basis set group =>   1
Atom  19C    basis set group =>   1
Atom  20C    basis set group =>   1
Atom  21C    basis set group =>   1
Atom  22H    basis set group =>   2
Atom  23C    basis set group =>   1
Atom  24H    basis set group =>   2
Atom  25N    basis set group =>   3
Atom  26N    basis set group =>   3
Atom  27N    basis set group =>   3
Atom  28O    basis set group =>   5
Atom  29O    basis set group =>   5
Atom  30C    basis set group =>   1
Atom  31C    basis set group =>   1
Atom  32C    basis set group =>   1
Atom  33C    basis set group =>   1
Atom  34H    basis set group =>   2
Atom  35C    basis set group =>   1
Atom  36H    basis set group =>   2
Atom  37C    basis set group =>   1
Atom  38H    basis set group =>   2
Atom  39H    basis set group =>   2
Atom  40C    basis set group =>   1
Atom  41H    basis set group =>   2
Atom  42H    basis set group =>   2
Atom  43H    basis set group =>   2
Atom  44H    basis set group =>   2
Atom  45N    basis set group =>   3
Atom  46O    basis set group =>   5
Atom  47O    basis set group =>   5


           ************************************************************
           *        Program running with 42 parallel MPI-processes    *
           *            working without local directories             *
           ************************************************************
------------------------------------------------------------------------------
                           ORCA GTO INTEGRAL CALCULATION
------------------------------------------------------------------------------

                         BASIS SET STATISTICS AND STARTUP INFO

 # of primitive gaussian shells          ...  582
 # of primitive gaussian functions       ... 1020
 # of contracted shells                  ...  245
 # of contracted basis functions         ...  541
 Highest angular momentum                ...    2
 Maximum contraction depth               ...    6
 Integral package used                   ... LIBINT
 Integral threshhold            Thresh   ...  2.500e-11
 Primitive cut-off              TCut     ...  2.500e-12


------------------------------ INTEGRAL EVALUATION ----------------------------


 * One electron integrals 
 Pre-screening matrix                    ... done
 Shell pair data                         ... done (   0.007 sec)



           ************************************************************
           *        Program running with 42 parallel MPI-processes    *
           *            working without local directories             *
           ************************************************************
-------------------------------------------------------------------------------
                                 ORCA SCF
-------------------------------------------------------------------------------

------------
SCF SETTINGS
------------
Hamiltonian:
 Density Functional     Method          .... DFT(GTOs)
 Exchange Functional    Exchange        .... B88
   X-Alpha parameter    XAlpha          ....  0.666667
   Becke's b parameter  XBeta           ....  0.004200
 Correlation Functional Correlation     .... LYP
 LDA part of GGA corr.  LDAOpt          .... VWN-3
 Gradients option       PostSCFGGA      .... off
 Hybrid DFT is turned on
   Fraction HF Exchange ScalHFX         ....  0.200000
   Scaling of DF-GGA-X  ScalDFX         ....  0.720000
   Scaling of DF-GGA-C  ScalDFC         ....  0.810000
   Scaling of DF-LDA-C  ScalLDAC        ....  1.000000
   Perturbative correction              ....  0.000000
   Density functional embedding theory  .... OFF
   NL short-range parameter             ....  4.800000


General Settings:
 Integral files         IntName         .... x2-4-NO2-Ph-N2-OTs-v2-B3LYPG-6-31G_dp
 Hartree-Fock type      HFTyp           .... RHF
 Total Charge           Charge          ....    1
 Multiplicity           Mult            ....    1
 Number of Electrons    NEL             ....  242
 Basis Dimension        Dim             ....  541
 Nuclear Repulsion      ENuc            ....   3227.7950079195 Eh

Convergence Acceleration:
 DIIS                   CNVDIIS         .... on
   Start iteration      DIISMaxIt       ....    12
   Startup error        DIISStart       ....  0.200000
   # of expansion vecs  DIISMaxEq       ....     5
   Bias factor          DIISBfac        ....   1.050
   Max. coefficient     DIISMaxC        ....  10.000
 Newton-Raphson         CNVNR           .... off
 SOSCF                  CNVSOSCF        .... on
   Start iteration      SOSCFMaxIt      ....   150
   Startup grad/error   SOSCFStart      ....  0.003300
 Level Shifting         CNVShift        .... on
   Level shift para.    LevelShift      ....    0.2500
   Turn off err/grad.   ShiftErr        ....    0.0010
 Zerner damping         CNVZerner       .... off
 Static damping         CNVDamp         .... on
   Fraction old density DampFac         ....    0.7000
   Max. Damping (<1)    DampMax         ....    0.9800
   Min. Damping (>=0)   DampMin         ....    0.0000
   Turn off err/grad.   DampErr         ....    0.1000
 Fernandez-Rico         CNVRico         .... off

SCF Procedure:
 Maximum # iterations   MaxIter         ....  2000
 SCF integral mode      SCFMode         .... Direct
   Integral package                     .... LIBINT
 Reset frequency        DirectResetFreq ....    20
 Integral Threshold     Thresh          ....  2.500e-11 Eh
 Primitive CutOff       TCut            ....  2.500e-12 Eh

Convergence Tolerance:
 Convergence Check Mode ConvCheckMode   .... Total+1el-Energy
 Convergence forced     ConvForced      .... 0
 Energy Change          TolE            ....  1.000e-08 Eh
 1-El. energy change                    ....  1.000e-05 Eh
 Orbital Gradient       TolG            ....  1.000e-05
 Orbital Rotation angle TolX            ....  1.000e-05
 DIIS Error             TolErr          ....  5.000e-07


Diagonalization of the overlap matrix:
Smallest eigenvalue                        ... 4.200e-04
Time for diagonalization                   ...    0.097 sec
Threshold for overlap eigenvalues          ... 1.000e-08
Number of eigenvalues below threshold      ... 0
Time for construction of square roots      ...    0.996 sec
Total time needed                          ...    1.094 sec

-------------------
DFT GRID GENERATION
-------------------

General Integration Accuracy     IntAcc      ...  5.670
Radial Grid Type                 RadialGrid  ... Gauss-Chebyshev
Angular Grid (max. acc.)         AngularGrid ... Lebedev-770
Angular grid pruning method      GridPruning ... 3 (G Style)
Weight generation scheme         WeightScheme... Becke
Basis function cutoff            BFCut       ...    1.0000e-11
Integration weight cutoff        WCut        ...    1.0000e-14
Grids for H and He will be reduced by one unit

# of grid points (after initial pruning)     ... 1095652 (   0.0 sec)
# of grid points (after weights+screening)   ... 967149 (   2.0 sec)
nearest neighbour list constructed           ...    0.0 sec
Grid point re-assignment to atoms done       ...    0.4 sec
Grid point division into batches done        ...   20.7 sec
Reduced shell lists constructed in   21.5 sec

Total number of grid points                  ...   967149
Total number of batches                      ...    15135
Average number of points per batch           ...       63
Average number of grid points per atom       ...    20149
Average number of shells per batch           ...    70.20 (28.65%)
Average number of basis functions per batch  ...   156.04 (28.84%)
Average number of large shells per batch     ...    45.06 (64.18%)
Average number of large basis fcns per batch ...   100.46 (64.38%)
Maximum spatial batch extension              ...  12.81, 13.93, 14.50 au
Average spatial batch extension              ...   0.02,  0.03,  0.03 au

Time for grid setup =   28.315 sec

------------------------------
INITIAL GUESS: MODEL POTENTIAL
------------------------------
Loading Hartree-Fock densities                     ... done
Calculating cut-offs                               ... done
Setting up the integral package                    ... done
Initializing the effective Hamiltonian             ... done
Starting the Coulomb interaction                   ... done (   0.1 sec)
Reading the grid                                   ... done
Mapping shells                                     ... done
Starting the XC term evaluation                    ... done (   0.4 sec)
  promolecular density results
     # of electrons  =    242.992669622
     EX              =   -223.967443904
     EC              =     -8.587018379
     EX+EC           =   -232.554462283
Transforming the Hamiltonian                       ... done (   0.1 sec)
Diagonalizing the Hamiltonian                      ... done (   0.1 sec)
Back transforming the eigenvectors                 ... done (   0.5 sec)
Now organizing SCF variables                       ... done
                      ------------------
                      INITIAL GUESS DONE (  29.7 sec)
                      ------------------
--------------
SCF ITERATIONS
--------------
ITER       Energy         Delta-E        Max-DP      RMS-DP      [F,P]     Damp
               ***  Starting incremental Fock matrix formation  ***
  0  -1984.7382563045   0.000000000000 0.15569733  0.00156165  0.2937491 0.7000
  1  -1985.2050075446  -0.466751240100 0.07219805  0.00096547  0.1121361 0.7000
                               ***Turning on DIIS***
  2  -1985.3557531289  -0.150745584229 0.06080768  0.00138310  0.0352625 0.0000
  3  -1985.6351185749  -0.279365446075 0.05418309  0.00065767  0.0640914 0.0000
  4  -1985.6819330101  -0.046814435108 0.01350250  0.00022978  0.0192102 0.0000
  5  -1985.6874201219  -0.005487111812 0.00586407  0.00007554  0.0051822 0.0000
                      *** Initiating the SOSCF procedure ***
                           *** Shutting down DIIS ***
                      *** Re-Reading the Fockian *** 
                      *** Removing any level shift *** 
ITER      Energy       Delta-E        Grad      Rot      Max-DP    RMS-DP
  6  -1985.68773799  -0.0003178730  0.001514  0.001514  0.002263  0.000031
               *** Restarting incremental Fock matrix formation ***
  7  -1985.68780048  -0.0000624856  0.000896  0.006263  0.002705  0.000039
  8  -1985.68777540   0.0000250838  0.001764  0.001459  0.002062  0.000021
  9  -1985.68782909  -0.0000536921  0.000275  0.000926  0.001067  0.000014
 10  -1985.68782353   0.0000055586  0.000363  0.000516  0.000805  0.000009
 11  -1985.68783214  -0.0000086121  0.000075  0.000552  0.000415  0.000004
 12  -1985.68783138   0.0000007654  0.000202  0.000245  0.000359  0.000003
 13  -1985.68783234  -0.0000009586  0.000054  0.000265  0.000210  0.000002
 14  -1985.68783212   0.0000002118  0.000078  0.000179  0.000134  0.000002
 15  -1985.68783240  -0.0000002765  0.000006  0.000016  0.000053  0.000001
 16  -1985.68783238   0.0000000176  0.000013  0.000012  0.000038  0.000000
 17  -1985.68783240  -0.0000000200  0.000003  0.000017  0.000011  0.000000
 18  -1985.68783240  -0.0000000002  0.000005  0.000010  0.000008  0.000000
                  ***Gradient check signals convergence***
              ***Rediagonalizing the Fockian in SOSCF/NRSCF***

               *****************************************************
               *                     SUCCESS                       *
               *           SCF CONVERGED AFTER  19 CYCLES          *
               *****************************************************


----------------
TOTAL SCF ENERGY
----------------

Total Energy       :        -1985.68783240 Eh          -54033.31292 eV

Components:
Nuclear Repulsion  :         3227.79500792 Eh           87832.76750 eV
Electronic Energy  :        -5213.48284032 Eh         -141866.08042 eV
One Electron Energy:        -9106.78125120 Eh         -247808.11617 eV
Two Electron Energy:         3893.29841088 Eh          105942.03575 eV

Virial components:
Potential Energy   :        -3959.53999201 Eh         -107744.56081 eV
Kinetic Energy     :         1973.85215961 Eh           53711.24789 eV
Virial Ratio       :            2.00599623


DFT components:
N(Alpha)           :      121.000002294283 electrons
N(Beta)            :      121.000002294283 electrons
N(Total)           :      242.000004588565 electrons
E(X)               :     -179.477840135636 Eh       
E(C)               :      -10.952442558841 Eh       
E(XC)              :     -190.430282694477 Eh       
DFET-embed. en.    :        0.000000000000 Eh       

---------------
SCF CONVERGENCE
---------------

  Last Energy change         ...    8.0081e-10  Tolerance :   1.0000e-08
  Last MAX-Density change    ...    5.8150e-06  Tolerance :   1.0000e-07
  Last RMS-Density change    ...    7.2708e-08  Tolerance :   5.0000e-09
  Last Orbital Gradient      ...    1.7090e-06  Tolerance :   1.0000e-05
  Last Orbital Rotation      ...    3.6433e-06  Tolerance :   1.0000e-05

             **** THE GBW FILE WAS UPDATED (x2-4-NO2-Ph-N2-OTs-v2-B3LYPG-6-31G_dp.gbw) ****
             **** DENSITY FILE WAS UPDATED (x2-4-NO2-Ph-N2-OTs-v2-B3LYPG-6-31G_dp.scfp.tmp) ****
             **** ENERGY FILE WAS UPDATED (x2-4-NO2-Ph-N2-OTs-v2-B3LYPG-6-31G_dp.en.tmp) ****
----------------
ORBITAL ENERGIES
----------------

  NO   OCC          E(Eh)            E(eV) 
   0   2.0000     -89.183156     -2426.7970 
   1   2.0000     -19.292576      -524.9777 
   2   2.0000     -19.292486      -524.9752 
   3   2.0000     -19.288306      -524.8615 
   4   2.0000     -19.288226      -524.8593 
   5   2.0000     -19.227002      -523.1933 
   6   2.0000     -19.215733      -522.8867 
   7   2.0000     -19.211916      -522.7828 
   8   2.0000     -14.683342      -399.5540 
   9   2.0000     -14.679105      -399.4388 
  10   2.0000     -14.662660      -398.9913 
  11   2.0000     -14.644429      -398.4952 
  12   2.0000     -14.636455      -398.2782 
  13   2.0000     -14.632234      -398.1633 
  14   2.0000     -10.431315      -283.8505 
  15   2.0000     -10.421759      -283.5905 
  16   2.0000     -10.392441      -282.7927 
  17   2.0000     -10.387106      -282.6475 
  18   2.0000     -10.373965      -282.2899 
  19   2.0000     -10.365920      -282.0710 
  20   2.0000     -10.361138      -281.9409 
  21   2.0000     -10.358918      -281.8805 
  22   2.0000     -10.355349      -281.7834 
  23   2.0000     -10.352208      -281.6979 
  24   2.0000     -10.349835      -281.6333 
  25   2.0000     -10.348214      -281.5892 
  26   2.0000     -10.291363      -280.0422 
  27   2.0000     -10.280332      -279.7421 
  28   2.0000     -10.277478      -279.6644 
  29   2.0000     -10.277371      -279.6615 
  30   2.0000     -10.268592      -279.4226 
  31   2.0000     -10.268373      -279.4166 
  32   2.0000     -10.253246      -279.0050 
  33   2.0000      -8.215524      -223.5558 
  34   2.0000      -6.180158      -168.1706 
  35   2.0000      -6.179826      -168.1616 
  36   2.0000      -6.178283      -168.1196 
  37   2.0000      -1.341007       -36.4907 
  38   2.0000      -1.336725       -36.3741 
  39   2.0000      -1.319896       -35.9162 
  40   2.0000      -1.297479       -35.3062 
  41   2.0000      -1.197965       -32.5983 
  42   2.0000      -1.170705       -31.8565 
  43   2.0000      -1.166339       -31.7377 
  44   2.0000      -1.066683       -29.0259 
  45   2.0000      -1.064163       -28.9574 
  46   2.0000      -1.062004       -28.8986 
  47   2.0000      -1.052316       -28.6350 
  48   2.0000      -0.997610       -27.1463 
  49   2.0000      -0.987061       -26.8593 
  50   2.0000      -0.945267       -25.7220 
  51   2.0000      -0.923431       -25.1278 
  52   2.0000      -0.917870       -24.9765 
  53   2.0000      -0.898669       -24.4540 
  54   2.0000      -0.890814       -24.2403 
  55   2.0000      -0.864012       -23.5110 
  56   2.0000      -0.831813       -22.6348 
  57   2.0000      -0.790137       -21.5007 
  58   2.0000      -0.786495       -21.4016 
  59   2.0000      -0.784119       -21.3370 
  60   2.0000      -0.781033       -21.2530 
  61   2.0000      -0.780033       -21.2258 
  62   2.0000      -0.722202       -19.6521 
  63   2.0000      -0.717401       -19.5215 
  64   2.0000      -0.711976       -19.3738 
  65   2.0000      -0.694283       -18.8924 
  66   2.0000      -0.676140       -18.3987 
  67   2.0000      -0.674101       -18.3432 
  68   2.0000      -0.672743       -18.3063 
  69   2.0000      -0.671658       -18.2767 
  70   2.0000      -0.665455       -18.1079 
  71   2.0000      -0.654962       -17.8224 
  72   2.0000      -0.651863       -17.7381 
  73   2.0000      -0.647020       -17.6063 
  74   2.0000      -0.642687       -17.4884 
  75   2.0000      -0.641705       -17.4617 
  76   2.0000      -0.635467       -17.2919 
  77   2.0000      -0.624166       -16.9844 
  78   2.0000      -0.615591       -16.7511 
  79   2.0000      -0.607872       -16.5410 
  80   2.0000      -0.605145       -16.4668 
  81   2.0000      -0.601399       -16.3649 
  82   2.0000      -0.598277       -16.2799 
  83   2.0000      -0.592862       -16.1326 
  84   2.0000      -0.587504       -15.9868 
  85   2.0000      -0.584519       -15.9056 
  86   2.0000      -0.568617       -15.4728 
  87   2.0000      -0.563118       -15.3232 
  88   2.0000      -0.553606       -15.0644 
  89   2.0000      -0.549462       -14.9516 
  90   2.0000      -0.542936       -14.7740 
  91   2.0000      -0.534936       -14.5563 
  92   2.0000      -0.528281       -14.3752 
  93   2.0000      -0.527981       -14.3671 
  94   2.0000      -0.521569       -14.1926 
  95   2.0000      -0.514004       -13.9868 
  96   2.0000      -0.507658       -13.8141 
  97   2.0000      -0.506017       -13.7694 
  98   2.0000      -0.494726       -13.4622 
  99   2.0000      -0.461778       -12.5656 
 100   2.0000      -0.448038       -12.1917 
 101   2.0000      -0.442761       -12.0481 
 102   2.0000      -0.435591       -11.8530 
 103   2.0000      -0.428726       -11.6662 
 104   2.0000      -0.426588       -11.6081 
 105   2.0000      -0.425192       -11.5701 
 106   2.0000      -0.423214       -11.5162 
 107   2.0000      -0.421679       -11.4745 
 108   2.0000      -0.420706       -11.4480 
 109   2.0000      -0.417900       -11.3716 
 110   2.0000      -0.416081       -11.3221 
 111   2.0000      -0.414376       -11.2758 
 112   2.0000      -0.411698       -11.2029 
 113   2.0000      -0.405273       -11.0280 
 114   2.0000      -0.401038       -10.9128 
 115   2.0000      -0.391896       -10.6640 
 116   2.0000      -0.383755       -10.4425 
 117   2.0000      -0.383616       -10.4387 
 118   2.0000      -0.352949        -9.6042 
 119   2.0000      -0.337549        -9.1852 
 120   2.0000      -0.326653        -8.8887 
 121   0.0000      -0.252957        -6.8833 
 122   0.0000      -0.245483        -6.6799 
 123   0.0000      -0.220948        -6.0123 
 124   0.0000      -0.211266        -5.7488 
 125   0.0000      -0.183459        -4.9922 
 126   0.0000      -0.178355        -4.8533 
 127   0.0000      -0.167089        -4.5467 
 128   0.0000      -0.162445        -4.4203 
 129   0.0000      -0.112174        -3.0524 
 130   0.0000      -0.106256        -2.8914 
 131   0.0000      -0.101406        -2.7594 
 132   0.0000      -0.087918        -2.3924 
 133   0.0000      -0.052510        -1.4289 
 134   0.0000      -0.041407        -1.1268 
 135   0.0000      -0.000840        -0.0229 
 136   0.0000       0.004958         0.1349 
 137   0.0000       0.007563         0.2058 
 138   0.0000       0.012305         0.3348 
 139   0.0000       0.014697         0.3999 
 140   0.0000       0.019416         0.5283 
 141   0.0000       0.024594         0.6692 
 142   0.0000       0.037093         1.0093 
 143   0.0000       0.039676         1.0796 
 144   0.0000       0.042916         1.1678 
 145   0.0000       0.052106         1.4179 
 146   0.0000       0.055361         1.5065 
 147   0.0000       0.055681         1.5152 
 148   0.0000       0.059281         1.6131 
 149   0.0000       0.060989         1.6596 
 150   0.0000       0.064755         1.7621 
 151   0.0000       0.071624         1.9490 
 152   0.0000       0.085102         2.3158 
 153   0.0000       0.094076         2.5599 
 154   0.0000       0.100012         2.7215 
 155   0.0000       0.102459         2.7881 
 156   0.0000       0.113746         3.0952 
 157   0.0000       0.125819         3.4237 
 158   0.0000       0.127342         3.4651 
 159   0.0000       0.131579         3.5804 
 160   0.0000       0.144238         3.9249 
 161   0.0000       0.147443         4.0121 
 162   0.0000       0.148901         4.0518 
 163   0.0000       0.154218         4.1965 
 164   0.0000       0.158927         4.3246 
 165   0.0000       0.159892         4.3509 
 166   0.0000       0.173885         4.7316 
 167   0.0000       0.176593         4.8053 
 168   0.0000       0.186384         5.0718 
 169   0.0000       0.200718         5.4618 
 170   0.0000       0.209349         5.6967 
 171   0.0000       0.223740         6.0883 
 172   0.0000       0.238983         6.5031 
 173   0.0000       0.246538         6.7086 
 174   0.0000       0.251590         6.8461 
 175   0.0000       0.253327         6.8934 
 176   0.0000       0.262871         7.1531 
 177   0.0000       0.264510         7.1977 
 178   0.0000       0.283537         7.7154 
 179   0.0000       0.291408         7.9296 
 180   0.0000       0.313527         8.5315 
 181   0.0000       0.326596         8.8871 
 182   0.0000       0.353493         9.6190 
 183   0.0000       0.355536         9.6746 
 184   0.0000       0.359593         9.7850 
 185   0.0000       0.365994         9.9592 
 186   0.0000       0.369362        10.0508 
 187   0.0000       0.373899        10.1743 
 188   0.0000       0.377691        10.2775 
 189   0.0000       0.387584        10.5467 
 190   0.0000       0.391691        10.6585 
 191   0.0000       0.393887        10.7182 
 192   0.0000       0.399288        10.8652 
 193   0.0000       0.403344        10.9755 
 194   0.0000       0.411727        11.2037 
 195   0.0000       0.418036        11.3753 
 196   0.0000       0.418285        11.3821 
 197   0.0000       0.422179        11.4881 
 198   0.0000       0.425130        11.5684 
 199   0.0000       0.438910        11.9434 
 200   0.0000       0.439908        11.9705 
 201   0.0000       0.442538        12.0421 
 202   0.0000       0.443460        12.0672 
 203   0.0000       0.447786        12.1849 
 204   0.0000       0.452259        12.3066 
 205   0.0000       0.468211        12.7407 
 206   0.0000       0.473997        12.8981 
 207   0.0000       0.478046        13.0083 
 208   0.0000       0.481546        13.1035 
 209   0.0000       0.484501        13.1839 
 210   0.0000       0.496282        13.5045 
 211   0.0000       0.503819        13.7096 
 212   0.0000       0.505491        13.7551 
 213   0.0000       0.506827        13.7915 
 214   0.0000       0.509197        13.8560 
 215   0.0000       0.511813        13.9271 
 216   0.0000       0.512583        13.9481 
 217   0.0000       0.513886        13.9836 
 218   0.0000       0.517817        14.0905 
 219   0.0000       0.518558        14.1107 
 220   0.0000       0.543088        14.7782 
 221   0.0000       0.543940        14.8014 
 222   0.0000       0.547831        14.9072 
 223   0.0000       0.550102        14.9690 
 224   0.0000       0.557157        15.1610 
 225   0.0000       0.560439        15.2503 
 226   0.0000       0.581473        15.8227 
 227   0.0000       0.593610        16.1529 
 228   0.0000       0.596100        16.2207 
 229   0.0000       0.598914        16.2973 
 230   0.0000       0.599565        16.3150 
 231   0.0000       0.612105        16.6562 
 232   0.0000       0.619122        16.8472 
 233   0.0000       0.626016        17.0347 
 234   0.0000       0.627828        17.0841 
 235   0.0000       0.640546        17.4301 
 236   0.0000       0.646070        17.5805 
 237   0.0000       0.648557        17.6481 
 238   0.0000       0.659505        17.9461 
 239   0.0000       0.662420        18.0254 
 240   0.0000       0.663712        18.0605 
 241   0.0000       0.669563        18.2197 
 242   0.0000       0.676050        18.3963 
 243   0.0000       0.683756        18.6059 
 244   0.0000       0.687358        18.7040 
 245   0.0000       0.693788        18.8789 
 246   0.0000       0.695305        18.9202 
 247   0.0000       0.698042        18.9947 
 248   0.0000       0.701627        19.0922 
 249   0.0000       0.710899        19.3445 
 250   0.0000       0.714149        19.4330 
 251   0.0000       0.717752        19.5310 
 252   0.0000       0.722465        19.6593 
 253   0.0000       0.724895        19.7254 
 254   0.0000       0.732982        19.9454 
 255   0.0000       0.742226        20.1970 
 256   0.0000       0.748101        20.3569 
 257   0.0000       0.758256        20.6332 
 258   0.0000       0.763583        20.7782 
 259   0.0000       0.777157        21.1475 
 260   0.0000       0.781418        21.2635 
 261   0.0000       0.787392        21.4260 
 262   0.0000       0.789675        21.4881 
 263   0.0000       0.794428        21.6175 
 264   0.0000       0.800276        21.7766 
 265   0.0000       0.808975        22.0133 
 266   0.0000       0.812856        22.1189 
 267   0.0000       0.817494        22.2451 
 268   0.0000       0.827816        22.5260 
 269   0.0000       0.830309        22.5939 
 270   0.0000       0.837065        22.7777 
 271   0.0000       0.840819        22.8798 
 272   0.0000       0.842335        22.9211 
 273   0.0000       0.844220        22.9724 
 274   0.0000       0.850897        23.1541 
 275   0.0000       0.861149        23.4330 
 276   0.0000       0.863441        23.4954 
 277   0.0000       0.870155        23.6781 
 278   0.0000       0.882449        24.0127 
 279   0.0000       0.886068        24.1111 
 280   0.0000       0.891898        24.2698 
 281   0.0000       0.896031        24.3822 
 282   0.0000       0.899804        24.4849 
 283   0.0000       0.902706        24.5639 
 284   0.0000       0.912319        24.8255 
 285   0.0000       0.937096        25.4997 
 286   0.0000       0.948086        25.7987 
 287   0.0000       0.955252        25.9937 
 288   0.0000       0.959458        26.1082 
 289   0.0000       0.970779        26.4162 
 290   0.0000       0.972576        26.4651 
 291   0.0000       0.979963        26.6661 
 292   0.0000       1.002853        27.2890 
 293   0.0000       1.008107        27.4320 
 294   0.0000       1.010817        27.5057 
 295   0.0000       1.024203        27.8700 
 296   0.0000       1.030085        28.0300 
 297   0.0000       1.038934        28.2708 
 298   0.0000       1.050794        28.5936 
 299   0.0000       1.061807        28.8932 
 300   0.0000       1.068628        29.0789 
 301   0.0000       1.069261        29.0961 
 302   0.0000       1.081210        29.4212 
 303   0.0000       1.085817        29.5466 
 304   0.0000       1.089513        29.6472 
 305   0.0000       1.098298        29.8862 
 306   0.0000       1.104314        30.0499 
 307   0.0000       1.115924        30.3658 
 308   0.0000       1.126486        30.6532 
 309   0.0000       1.130457        30.7613 
 310   0.0000       1.135987        30.9118 
 311   0.0000       1.141334        31.0573 
 312   0.0000       1.155947        31.4549 
 313   0.0000       1.159489        31.5513 
 314   0.0000       1.160930        31.5905 
 315   0.0000       1.166660        31.7464 
 316   0.0000       1.173540        31.9336 
 317   0.0000       1.191092        32.4113 
 318   0.0000       1.207391        32.8548 
 319   0.0000       1.208960        32.8975 
 320   0.0000       1.212801        33.0020 
 321   0.0000       1.214641        33.0521 
 322   0.0000       1.216324        33.0979 
 323   0.0000       1.221730        33.2450 
 324   0.0000       1.223781        33.3008 
 325   0.0000       1.229629        33.4599 
 326   0.0000       1.232382        33.5348 
 327   0.0000       1.236026        33.6340 
 328   0.0000       1.240729        33.7620 
 329   0.0000       1.260680        34.3048 
 330   0.0000       1.269883        34.5553 
 331   0.0000       1.277118        34.7522 
 332   0.0000       1.294913        35.2364 
 333   0.0000       1.298061        35.3220 
 334   0.0000       1.300110        35.3778 
 335   0.0000       1.308057        35.5940 
 336   0.0000       1.312363        35.7112 
 337   0.0000       1.314881        35.7797 
 338   0.0000       1.315876        35.8068 
 339   0.0000       1.325709        36.0744 
 340   0.0000       1.331609        36.2349 
 341   0.0000       1.342674        36.5360 
 342   0.0000       1.350002        36.7354 
 343   0.0000       1.355998        36.8986 
 344   0.0000       1.371306        37.3151 
 345   0.0000       1.387379        37.7525 
 346   0.0000       1.399917        38.0937 
 347   0.0000       1.427788        38.8521 
 348   0.0000       1.445192        39.3257 
 349   0.0000       1.466018        39.8924 
 350   0.0000       1.512440        41.1556 
 351   0.0000       1.531911        41.6854 
 352   0.0000       1.552066        42.2339 
 353   0.0000       1.564667        42.5768 
 354   0.0000       1.577124        42.9157 
 355   0.0000       1.580634        43.0112 
 356   0.0000       1.587708        43.2037 
 357   0.0000       1.591208        43.2990 
 358   0.0000       1.596286        43.4371 
 359   0.0000       1.596537        43.4440 
 360   0.0000       1.603232        43.6262 
 361   0.0000       1.614412        43.9304 
 362   0.0000       1.620802        44.1043 
 363   0.0000       1.623845        44.1871 
 364   0.0000       1.641487        44.6671 
 365   0.0000       1.646757        44.8105 
 366   0.0000       1.649796        44.8932 
 367   0.0000       1.664541        45.2945 
 368   0.0000       1.675256        45.5860 
 369   0.0000       1.678938        45.6862 
 370   0.0000       1.685595        45.8674 
 371   0.0000       1.693456        46.0813 
 372   0.0000       1.694626        46.1131 
 373   0.0000       1.697506        46.1915 
 374   0.0000       1.700489        46.2727 
 375   0.0000       1.704457        46.3806 
 376   0.0000       1.710142        46.5353 
 377   0.0000       1.712784        46.6072 
 378   0.0000       1.719748        46.7967 
 379   0.0000       1.728846        47.0443 
 380   0.0000       1.735642        47.2292 
 381   0.0000       1.738398        47.3042 
 382   0.0000       1.740995        47.3749 
 383   0.0000       1.747952        47.5642 
 384   0.0000       1.749785        47.6141 
 385   0.0000       1.758888        47.8618 
 386   0.0000       1.762511        47.9604 
 387   0.0000       1.766550        48.0703 
 388   0.0000       1.772210        48.2243 
 389   0.0000       1.775373        48.3104 
 390   0.0000       1.776889        48.3516 
 391   0.0000       1.784980        48.5718 
 392   0.0000       1.791927        48.7608 
 393   0.0000       1.799211        48.9590 
 394   0.0000       1.804174        49.0941 
 395   0.0000       1.814964        49.3877 
 396   0.0000       1.816709        49.4352 
 397   0.0000       1.818817        49.4925 
 398   0.0000       1.821870        49.5756 
 399   0.0000       1.824961        49.6597 
 400   0.0000       1.840065        50.0707 
 401   0.0000       1.850138        50.3448 
 402   0.0000       1.851859        50.3916 
 403   0.0000       1.853811        50.4448 
 404   0.0000       1.856398        50.5152 
 405   0.0000       1.868958        50.8569 
 406   0.0000       1.875022        51.0219 
 407   0.0000       1.885289        51.3013 
 408   0.0000       1.886062        51.3224 
 409   0.0000       1.888503        51.3888 
 410   0.0000       1.913388        52.0659 
 411   0.0000       1.928774        52.4846 
 412   0.0000       1.933716        52.6191 
 413   0.0000       1.934030        52.6276 
 414   0.0000       1.938417        52.7470 
 415   0.0000       1.947083        52.9828 
 416   0.0000       1.951616        53.1062 
 417   0.0000       1.957315        53.2612 
 418   0.0000       1.971044        53.6348 
 419   0.0000       1.975605        53.7589 
 420   0.0000       1.980101        53.8813 
 421   0.0000       1.984718        54.0069 
 422   0.0000       1.990695        54.1696 
 423   0.0000       2.004562        54.5469 
 424   0.0000       2.008719        54.6600 
 425   0.0000       2.022596        55.0376 
 426   0.0000       2.023500        55.0622 
 427   0.0000       2.025278        55.1106 
 428   0.0000       2.032688        55.3122 
 429   0.0000       2.056011        55.9469 
 430   0.0000       2.073233        56.4156 
 431   0.0000       2.082062        56.6558 
 432   0.0000       2.088171        56.8220 
 433   0.0000       2.112637        57.4878 
 434   0.0000       2.116816        57.6015 
 435   0.0000       2.119856        57.6842 
 436   0.0000       2.122788        57.7640 
 437   0.0000       2.127586        57.8946 
 438   0.0000       2.182579        59.3910 
 439   0.0000       2.195976        59.7555 
 440   0.0000       2.197454        59.7958 
 441   0.0000       2.202302        59.9277 
 442   0.0000       2.217005        60.3278 
 443   0.0000       2.232647        60.7534 
 444   0.0000       2.242237        61.0144 
 445   0.0000       2.248659        61.1891 
 446   0.0000       2.252124        61.2834 
 447   0.0000       2.255160        61.3660 
 448   0.0000       2.260777        61.5189 
 449   0.0000       2.262371        61.5622 
 450   0.0000       2.265040        61.6349 
 451   0.0000       2.275531        61.9203 
 452   0.0000       2.276271        61.9405 
 453   0.0000       2.285795        62.1996 
 454   0.0000       2.285884        62.2021 
 455   0.0000       2.324317        63.2479 
 456   0.0000       2.327220        63.3269 
 457   0.0000       2.334080        63.5135 
 458   0.0000       2.349861        63.9430 
 459   0.0000       2.353337        64.0376 
 460   0.0000       2.356167        64.1146 
 461   0.0000       2.369715        64.4832 
 462   0.0000       2.375772        64.6480 
 463   0.0000       2.397392        65.2364 
 464   0.0000       2.407636        65.5151 
 465   0.0000       2.419155        65.8286 
 466   0.0000       2.423633        65.9504 
 467   0.0000       2.437314        66.3227 
 468   0.0000       2.445023        66.5325 
 469   0.0000       2.449614        66.6574 
 470   0.0000       2.451340        66.7044 
 471   0.0000       2.453232        66.7558 
 472   0.0000       2.456037        66.8322 
 473   0.0000       2.460182        66.9450 
 474   0.0000       2.461599        66.9835 
 475   0.0000       2.467898        67.1549 
 476   0.0000       2.475079        67.3503 
 477   0.0000       2.488741        67.7221 
 478   0.0000       2.513853        68.4054 
 479   0.0000       2.514540        68.4241 
 480   0.0000       2.515619        68.4535 
 481   0.0000       2.543449        69.2108 
 482   0.0000       2.549581        69.3776 
 483   0.0000       2.556321        69.5610 
 484   0.0000       2.576209        70.1022 
 485   0.0000       2.584545        70.3291 
 486   0.0000       2.595081        70.6157 
 487   0.0000       2.597428        70.6796 
 488   0.0000       2.599110        70.7254 
 489   0.0000       2.614697        71.1495 
 490   0.0000       2.620643        71.3113 
 491   0.0000       2.648568        72.0712 
 492   0.0000       2.654708        72.2383 
[...]
freq.      23.66  E(vib)   ...       1.11 
freq.      30.40  E(vib)   ...       1.10 
freq.      32.15  E(vib)   ...       1.09 
freq.      35.33  E(vib)   ...       1.09 
freq.      36.01  E(vib)   ...       1.09 
freq.      57.82  E(vib)   ...       1.06 
freq.      60.77  E(vib)   ...       1.05 
freq.      67.94  E(vib)   ...       1.04 
freq.      79.71  E(vib)   ...       1.03 
freq.      88.01  E(vib)   ...       1.02 
freq.      91.75  E(vib)   ...       1.01 
freq.      95.37  E(vib)   ...       1.01 
freq.     110.34  E(vib)   ...       0.99 
freq.     156.15  E(vib)   ...       0.93 
freq.     171.07  E(vib)   ...       0.91 
freq.     187.16  E(vib)   ...       0.89 
freq.     205.45  E(vib)   ...       0.87 
freq.     224.42  E(vib)   ...       0.85 
freq.     229.94  E(vib)   ...       0.84 
freq.     233.80  E(vib)   ...       0.84 
freq.     267.85  E(vib)   ...       0.80 
freq.     280.63  E(vib)   ...       0.78 
freq.     286.99  E(vib)   ...       0.78 
freq.     322.14  E(vib)   ...       0.74 
freq.     333.33  E(vib)   ...       0.73 
freq.     338.22  E(vib)   ...       0.72 
freq.     362.11  E(vib)   ...       0.70 
freq.     396.09  E(vib)   ...       0.67 
freq.     412.90  E(vib)   ...       0.65 
freq.     415.43  E(vib)   ...       0.65 
freq.     416.12  E(vib)   ...       0.65 
freq.     433.56  E(vib)   ...       0.63 
freq.     434.89  E(vib)   ...       0.63 
freq.     481.48  E(vib)   ...       0.59 
freq.     487.82  E(vib)   ...       0.58 
freq.     494.38  E(vib)   ...       0.57 
freq.     533.79  E(vib)   ...       0.54 
freq.     540.00  E(vib)   ...       0.54 
freq.     541.90  E(vib)   ...       0.53 
freq.     553.37  E(vib)   ...       0.53 
freq.     555.26  E(vib)   ...       0.52 
freq.     557.58  E(vib)   ...       0.52 
freq.     561.75  E(vib)   ...       0.52 
freq.     576.09  E(vib)   ...       0.51 
freq.     581.70  E(vib)   ...       0.50 
freq.     639.61  E(vib)   ...       0.46 
freq.     641.90  E(vib)   ...       0.46 
freq.     647.72  E(vib)   ...       0.45 
freq.     667.07  E(vib)   ...       0.44 
freq.     671.65  E(vib)   ...       0.44 
freq.     673.46  E(vib)   ...       0.44 
freq.     714.13  E(vib)   ...       0.41 
freq.     755.80  E(vib)   ...       0.38 
freq.     757.14  E(vib)   ...       0.38 
freq.     777.91  E(vib)   ...       0.37 
freq.     781.26  E(vib)   ...       0.37 
freq.     815.42  E(vib)   ...       0.35 
freq.     833.14  E(vib)   ...       0.34 
freq.     853.32  E(vib)   ...       0.32 
freq.     854.43  E(vib)   ...       0.32 
freq.     860.56  E(vib)   ...       0.32 
freq.     866.94  E(vib)   ...       0.32 
freq.     867.78  E(vib)   ...       0.32 
freq.     898.88  E(vib)   ...       0.30 
freq.     913.29  E(vib)   ...       0.29 
freq.     971.95  E(vib)   ...       0.27 
freq.     974.74  E(vib)   ...       0.26 
freq.     983.47  E(vib)   ...       0.26 
freq.     997.27  E(vib)   ...       0.25 
freq.     999.80  E(vib)   ...       0.25 
freq.    1013.26  E(vib)   ...       0.25 
freq.    1018.82  E(vib)   ...       0.24 
freq.    1025.13  E(vib)   ...       0.24 
freq.    1026.61  E(vib)   ...       0.24 
freq.    1037.62  E(vib)   ...       0.24 
freq.    1041.98  E(vib)   ...       0.24 
freq.    1065.57  E(vib)   ...       0.23 
freq.    1092.26  E(vib)   ...       0.22 
freq.    1113.88  E(vib)   ...       0.21 
freq.    1116.17  E(vib)   ...       0.21 
freq.    1128.09  E(vib)   ...       0.20 
freq.    1129.41  E(vib)   ...       0.20 
freq.    1131.81  E(vib)   ...       0.20 
freq.    1140.44  E(vib)   ...       0.20 
freq.    1144.13  E(vib)   ...       0.20 
freq.    1146.00  E(vib)   ...       0.20 
freq.    1191.76  E(vib)   ...       0.18 
freq.    1204.00  E(vib)   ...       0.18 
freq.    1209.84  E(vib)   ...       0.17 
freq.    1211.34  E(vib)   ...       0.17 
freq.    1236.32  E(vib)   ...       0.17 
freq.    1322.17  E(vib)   ...       0.14 
freq.    1330.55  E(vib)   ...       0.14 
freq.    1333.26  E(vib)   ...       0.14 
freq.    1349.89  E(vib)   ...       0.13 
freq.    1376.46  E(vib)   ...       0.13 
freq.    1379.33  E(vib)   ...       0.13 
freq.    1393.62  E(vib)   ...       0.12 
freq.    1394.39  E(vib)   ...       0.12 
freq.    1428.56  E(vib)   ...       0.12 
freq.    1439.75  E(vib)   ...       0.11 
freq.    1449.60  E(vib)   ...       0.11 
freq.    1452.84  E(vib)   ...       0.11 
freq.    1497.25  E(vib)   ...       0.10 
freq.    1504.41  E(vib)   ...       0.10 
freq.    1505.29  E(vib)   ...       0.10 
freq.    1506.18  E(vib)   ...       0.10 
freq.    1536.73  E(vib)   ...       0.09 
freq.    1617.26  E(vib)   ...       0.08 
freq.    1618.16  E(vib)   ...       0.08 
freq.    1624.54  E(vib)   ...       0.08 
freq.    1629.23  E(vib)   ...       0.08 
freq.    1632.15  E(vib)   ...       0.08 
freq.    1653.84  E(vib)   ...       0.08 
freq.    1684.97  E(vib)   ...       0.07 
freq.    1685.07  E(vib)   ...       0.07 
freq.    2238.25  E(vib)   ...       0.02 
freq.    2332.58  E(vib)   ...       0.02 
freq.    3048.89  E(vib)   ...       0.00 
freq.    3106.18  E(vib)   ...       0.00 
freq.    3120.09  E(vib)   ...       0.00 
freq.    3137.75  E(vib)   ...       0.00 
freq.    3187.56  E(vib)   ...       0.00 
freq.    3191.05  E(vib)   ...       0.00 
freq.    3218.49  E(vib)   ...       0.00 
freq.    3221.29  E(vib)   ...       0.00 
freq.    3221.46  E(vib)   ...       0.00 
freq.    3233.52  E(vib)   ...       0.00 
freq.    3234.40  E(vib)   ...       0.00 
freq.    3250.81  E(vib)   ...       0.00 
freq.    3251.52  E(vib)   ...       0.00 
freq.    3253.98  E(vib)   ...       0.00 
freq.    3255.49  E(vib)   ...       0.00 

------------
INNER ENERGY
------------

The inner energy is: U= E(el) + E(ZPE) + E(vib) + E(rot) + E(trans)
    E(el)   - is the total energy from the electronic structure calculation
              = E(kin-el) + E(nuc-el) + E(el-el) + E(nuc-nuc)
    E(ZPE)  - the the zero temperature vibrational energy from the frequency calculation
    E(vib)  - the the finite temperature correction to E(ZPE) due to population
              of excited vibrational states
    E(rot)  - is the rotational thermal energy
    E(trans)- is the translational thermal energy

Summary of contributions to the inner energy U:
Electronic energy                ...  -1985.68783251 Eh
Zero point energy                ...      0.33516625 Eh     210.32 kcal/mol
Thermal vibrational correction   ...      0.09061352 Eh      56.86 kcal/mol
Thermal rotational correction    ...      0.00272258 Eh       1.71 kcal/mol
Thermal translational correction ...      0.00272258 Eh       1.71 kcal/mol
-----------------------------------------------------------------------
Total thermal energy                  -1985.25660759 Eh


Summary of corrections to the electronic energy:
(perhaps to be used in another calculation)
Total thermal correction                  0.09605867 Eh      60.28 kcal/mol
Non-thermal (ZPE) correction              0.33516625 Eh     210.32 kcal/mol
-----------------------------------------------------------------------
Total correction                          0.43122492 Eh     270.60 kcal/mol


--------
ENTHALPY
--------

The enthalpy is H = U + kB*T
                kB is Boltzmann's constant
Total free energy                 ...  -1985.25660759 Eh 
Thermal Enthalpy correction       ...      0.00181510 Eh       1.14 kcal/mol
-----------------------------------------------------------------------
Total Enthalpy                    ...  -1985.25479248 Eh


Note: Rotational entropy computed according to Herzberg 
Infrared and Raman Spectra, Chapter V,1, Van Nostrand Reinhold, 1945 
Point Group:  C1, Symmetry Number:   1  
Rotational constants in cm-1:     0.003818     0.001797     0.001354 

Vibrational entropy computed according to the QRRHO of S. Grimme
Chem.Eur.J. 2012 18 9955


-------
ENTROPY
-------

The entropy contributions are T*S = T*(S(el)+S(vib)+S(rot)+S(trans))
     S(el)   - electronic entropy
     S(vib)  - vibrational entropy
     S(rot)  - rotational entropy
     S(trans)- translational entropy
The entropies will be listed as mutliplied by the temperature to get
units of energy

Electronic entropy                ...      0.00000000 Eh      0.00 kcal/mol
Vibrational entropy               ...      0.18068917 Eh    113.38 kcal/mol
Rotational entropy                ...      0.03684679 Eh     23.12 kcal/mol
Translational entropy             ...      0.04346438 Eh     27.27 kcal/mol
-----------------------------------------------------------------------
Final entropy term                ...      0.26100034 Eh    163.78 kcal/mol


-------------------
GIBBS FREE ENTHALPY
-------------------

The Gibbs free enthalpy is G = H - T*S

Total enthalpy                    ...  -1985.25479248 Eh 
Total entropy correction          ...     -0.26100034 Eh   -163.78 kcal/mol
-----------------------------------------------------------------------
Final Gibbs free enthalpy         ...  -1985.51579282 Eh

For completeness - the Gibbs free enthalpy minus the electronic energy
G-E(el)                           ...      0.17203968 Eh    107.96 kcal/mol


The first frequency considered to be a vibration is 6
The total number of vibrations considered is 138


--------------------------
THERMOCHEMISTRY AT 623.15K
--------------------------

Temperature         ... 623.15 K
Pressure            ... 1.00 atm
Total Mass          ... 471.42 AMU

Throughout the following assumptions are being made:
  (1) The electronic state is orbitally nondegenerate
  (2) There are no thermally accessible electronically excited states
  (3) Hindered rotations indicated by low frequency modes are not
      treated as such but are treated as vibrations and this may
      cause some error
  (4) All equations used are the standard statistical mechanics
      equations for an ideal gas
  (5) All vibrations are strictly harmonic

freq.       1.29  E(vib)   ...       1.24 
freq.       5.28  E(vib)   ...       1.23 
freq.       7.86  E(vib)   ...       1.23 
freq.      15.20  E(vib)   ...       1.22 
freq.      16.81  E(vib)   ...       1.21 
freq.      23.66  E(vib)   ...       1.20 
freq.      30.40  E(vib)   ...       1.20 
freq.      32.15  E(vib)   ...       1.19 
freq.      35.33  E(vib)   ...       1.19 
freq.      36.01  E(vib)   ...       1.19 
freq.      57.82  E(vib)   ...       1.16 
freq.      60.77  E(vib)   ...       1.15 
freq.      67.94  E(vib)   ...       1.14 
freq.      79.71  E(vib)   ...       1.13 
freq.      88.01  E(vib)   ...       1.12 
freq.      91.75  E(vib)   ...       1.11 
freq.      95.37  E(vib)   ...       1.11 
freq.     110.34  E(vib)   ...       1.09 
freq.     156.15  E(vib)   ...       1.03 
freq.     171.07  E(vib)   ...       1.01 
freq.     187.16  E(vib)   ...       0.99 
freq.     205.45  E(vib)   ...       0.97 
freq.     224.42  E(vib)   ...       0.95 
freq.     229.94  E(vib)   ...       0.94 
freq.     233.80  E(vib)   ...       0.93 
freq.     267.85  E(vib)   ...       0.89 
freq.     280.63  E(vib)   ...       0.88 
freq.     286.99  E(vib)   ...       0.87 
freq.     322.14  E(vib)   ...       0.83 
freq.     333.33  E(vib)   ...       0.82 
freq.     338.22  E(vib)   ...       0.82 
freq.     362.11  E(vib)   ...       0.79 
freq.     396.09  E(vib)   ...       0.76 
freq.     412.90  E(vib)   ...       0.74 
freq.     415.43  E(vib)   ...       0.74 
freq.     416.12  E(vib)   ...       0.74 
freq.     433.56  E(vib)   ...       0.72 
freq.     434.89  E(vib)   ...       0.72 
freq.     481.48  E(vib)   ...       0.68 
freq.     487.82  E(vib)   ...       0.67 
freq.     494.38  E(vib)   ...       0.66 
freq.     533.79  E(vib)   ...       0.63 
freq.     540.00  E(vib)   ...       0.62 
freq.     541.90  E(vib)   ...       0.62 
freq.     553.37  E(vib)   ...       0.61 
freq.     555.26  E(vib)   ...       0.61 
freq.     557.58  E(vib)   ...       0.61 
freq.     561.75  E(vib)   ...       0.60 
freq.     576.09  E(vib)   ...       0.59 
freq.     581.70  E(vib)   ...       0.59 
freq.     639.61  E(vib)   ...       0.54 
freq.     641.90  E(vib)   ...       0.54 
freq.     647.72  E(vib)   ...       0.54 
freq.     667.07  E(vib)   ...       0.52 
freq.     671.65  E(vib)   ...       0.52 
freq.     673.46  E(vib)   ...       0.52 
freq.     714.13  E(vib)   ...       0.49 
freq.     755.80  E(vib)   ...       0.46 
freq.     757.14  E(vib)   ...       0.46 
freq.     777.91  E(vib)   ...       0.44 
freq.     781.26  E(vib)   ...       0.44 
freq.     815.42  E(vib)   ...       0.42 
freq.     833.14  E(vib)   ...       0.41 
freq.     853.32  E(vib)   ...       0.40 
freq.     854.43  E(vib)   ...       0.39 
freq.     860.56  E(vib)   ...       0.39 
freq.     866.94  E(vib)   ...       0.39 
freq.     867.78  E(vib)   ...       0.39 
freq.     898.88  E(vib)   ...       0.37 
freq.     913.29  E(vib)   ...       0.36 
freq.     971.95  E(vib)   ...       0.33 
freq.     974.74  E(vib)   ...       0.33 
freq.     983.47  E(vib)   ...       0.32 
freq.     997.27  E(vib)   ...       0.32 
freq.     999.80  E(vib)   ...       0.32 
freq.    1013.26  E(vib)   ...       0.31 
freq.    1018.82  E(vib)   ...       0.31 
freq.    1025.13  E(vib)   ...       0.30 
freq.    1026.61  E(vib)   ...       0.30 
freq.    1037.62  E(vib)   ...       0.30 
freq.    1041.98  E(vib)   ...       0.30 
freq.    1065.57  E(vib)   ...       0.28 
freq.    1092.26  E(vib)   ...       0.27 
freq.    1113.88  E(vib)   ...       0.26 
freq.    1116.17  E(vib)   ...       0.26 
freq.    1128.09  E(vib)   ...       0.26 
freq.    1129.41  E(vib)   ...       0.26 
freq.    1131.81  E(vib)   ...       0.26 
freq.    1140.44  E(vib)   ...       0.25 
freq.    1144.13  E(vib)   ...       0.25 
freq.    1146.00  E(vib)   ...       0.25 
freq.    1191.76  E(vib)   ...       0.23 
freq.    1204.00  E(vib)   ...       0.23 
freq.    1209.84  E(vib)   ...       0.23 
freq.    1211.34  E(vib)   ...       0.23 
freq.    1236.32  E(vib)   ...       0.22 
freq.    1322.17  E(vib)   ...       0.19 
freq.    1330.55  E(vib)   ...       0.18 
freq.    1333.26  E(vib)   ...       0.18 
freq.    1349.89  E(vib)   ...       0.18 
freq.    1376.46  E(vib)   ...       0.17 
freq.    1379.33  E(vib)   ...       0.17 
freq.    1393.62  E(vib)   ...       0.17 
freq.    1394.39  E(vib)   ...       0.17 
freq.    1428.56  E(vib)   ...       0.16 
freq.    1439.75  E(vib)   ...       0.15 
freq.    1449.60  E(vib)   ...       0.15 
freq.    1452.84  E(vib)   ...       0.15 
freq.    1497.25  E(vib)   ...       0.14 
freq.    1504.41  E(vib)   ...       0.14 
freq.    1505.29  E(vib)   ...       0.14 
freq.    1506.18  E(vib)   ...       0.14 
freq.    1536.73  E(vib)   ...       0.13 
freq.    1617.26  E(vib)   ...       0.11 
freq.    1618.16  E(vib)   ...       0.11 
freq.    1624.54  E(vib)   ...       0.11 
freq.    1629.23  E(vib)   ...       0.11 
freq.    1632.15  E(vib)   ...       0.11 
freq.    1653.84  E(vib)   ...       0.11 
freq.    1684.97  E(vib)   ...       0.10 
freq.    1685.07  E(vib)   ...       0.10 
freq.    2238.25  E(vib)   ...       0.04 
freq.    2332.58  E(vib)   ...       0.03 
freq.    3048.89  E(vib)   ...       0.01 
freq.    3106.18  E(vib)   ...       0.01 
freq.    3120.09  E(vib)   ...       0.01 
freq.    3137.75  E(vib)   ...       0.01 
freq.    3187.56  E(vib)   ...       0.01 
freq.    3191.05  E(vib)   ...       0.01 
freq.    3218.49  E(vib)   ...       0.01 
freq.    3221.29  E(vib)   ...       0.01 
freq.    3221.46  E(vib)   ...       0.01 
freq.    3233.52  E(vib)   ...       0.01 
freq.    3234.40  E(vib)   ...       0.01 
freq.    3250.81  E(vib)   ...       0.01 
freq.    3251.52  E(vib)   ...       0.01 
freq.    3253.98  E(vib)   ...       0.01 
freq.    3255.49  E(vib)   ...       0.01 

------------
INNER ENERGY
------------

The inner energy is: U= E(el) + E(ZPE) + E(vib) + E(rot) + E(trans)
    E(el)   - is the total energy from the electronic structure calculation
              = E(kin-el) + E(nuc-el) + E(el-el) + E(nuc-nuc)
    E(ZPE)  - the the zero temperature vibrational energy from the frequency calculation
    E(vib)  - the the finite temperature correction to E(ZPE) due to population
              of excited vibrational states
    E(rot)  - is the rotational thermal energy
    E(trans)- is the translational thermal energy

Summary of contributions to the inner energy U:
Electronic energy                ...  -1985.68783251 Eh
Zero point energy                ...      0.33516625 Eh     210.32 kcal/mol
Thermal vibrational correction   ...      0.10450763 Eh      65.58 kcal/mol
Thermal rotational correction    ...      0.00296009 Eh       1.86 kcal/mol
Thermal translational correction ...      0.00296009 Eh       1.86 kcal/mol
-----------------------------------------------------------------------
Total thermal energy                  -1985.24223846 Eh


Summary of corrections to the electronic energy:
(perhaps to be used in another calculation)
Total thermal correction                  0.11042780 Eh      69.29 kcal/mol
Non-thermal (ZPE) correction              0.33516625 Eh     210.32 kcal/mol
-----------------------------------------------------------------------
Total correction                          0.44559404 Eh     279.61 kcal/mol


--------
ENTHALPY
--------

The enthalpy is H = U + kB*T
                kB is Boltzmann's constant
Total free energy                 ...  -1985.24223846 Eh 
Thermal Enthalpy correction       ...      0.00197345 Eh       1.24 kcal/mol
-----------------------------------------------------------------------
Total Enthalpy                    ...  -1985.24026501 Eh


Note: Rotational entropy computed according to Herzberg 
Infrared and Raman Spectra, Chapter V,1, Van Nostrand Reinhold, 1945 
Point Group:  C1, Symmetry Number:   1  
Rotational constants in cm-1:     0.003818     0.001797     0.001354 

Vibrational entropy computed according to the QRRHO of S. Grimme
Chem.Eur.J. 2012 18 9955


-------
ENTROPY
-------

The entropy contributions are T*S = T*(S(el)+S(vib)+S(rot)+S(trans))
     S(el)   - electronic entropy
     S(vib)  - vibrational entropy
     S(rot)  - rotational entropy
     S(trans)- translational entropy
The entropies will be listed as mutliplied by the temperature to get
units of energy

Electronic entropy                ...      0.00000000 Eh      0.00 kcal/mol
Vibrational entropy               ...      0.20961362 Eh    131.53 kcal/mol
Rotational entropy                ...      0.04030878 Eh     25.29 kcal/mol
Translational entropy             ...      0.04766872 Eh     29.91 kcal/mol
-----------------------------------------------------------------------
Final entropy term                ...      0.29759113 Eh    186.74 kcal/mol


-------------------
GIBBS FREE ENTHALPY
-------------------

The Gibbs free enthalpy is G = H - T*S

Total enthalpy                    ...  -1985.24026501 Eh 
Total entropy correction          ...     -0.29759113 Eh   -186.74 kcal/mol
-----------------------------------------------------------------------
Final Gibbs free enthalpy         ...  -1985.53785614 Eh

For completeness - the Gibbs free enthalpy minus the electronic energy
G-E(el)                           ...      0.14997637 Eh     94.11 kcal/mol


Total Time for Numerical Frequencies  :     10874.905 sec

Timings for individual modules:

Sum of individual times         ...      259.305 sec (=   4.322 min)
GTO integral calculation        ...        7.554 sec (=   0.126 min)   2.9 %
SCF iterations                  ...      206.310 sec (=   3.439 min)  79.6 %
SCF Gradient evaluation         ...       44.901 sec (=   0.748 min)  17.3 %
Geometry relaxation             ...        0.539 sec (=   0.009 min)   0.2 %
                             ****ORCA TERMINATED NORMALLY****
TOTAL RUN TIME: 0 days 3 hours 4 minutes 24 seconds 14 msec
